LAMMPS data file via write_data, version Version LIGGGHTS-PUBLIC-FIBERS 3.8.0, compiled 2024-08-09-12:48:33 by arlenlex, git commit 9ac9b48460642a344aa2f18bbbb435c5a3e8fde6, timestep = 100000

1966 atoms
2 atom types
0 bonds
1 bond types

-1.0000000000000000e+00 1.0000000000000000e+00 xlo xhi
-1.0000000000000000e+00 1.0000000000000000e+00 ylo yhi
0.0000000000000000e+00 3.0000000000000000e+00 zlo zhi

Masses

1 0
2 0

Bond Coeffs


Atoms

3953 1 4.0709907695779750e-02 -6.9237408689711982e-02 3.7819548259259339e-01 2.0000000000000000e-02 9.2000000000000011e+02 0 0 0
3952 1 1.5852558014393212e-02 -8.8593492465251306e-02 4.9902584371813885e-01 2.0000000000000000e-02 9.2000000000000011e+02 0 0 0
3951 1 -4.0985932906088325e-02 -2.5154244114655708e-02 2.4296331975855789e-01 2.0000000000000000e-02 9.2000000000000011e+02 0 0 0
4 1 -1.2292263088597663e-02 -8.2317466555030333e-02 9.9357680151059870e-03 2.0000000000000000e-02 9.2000000000000011e+02 0 0 0
3950 1 -1.5639510388539703e-02 -6.8705175829608806e-02 2.5157054985963362e-01 2.0000000000000000e-02 9.2000000000000011e+02 0 0 0
6 1 1.8105919940884990e-02 6.8614881628754169e-03 3.6795247958470845e-01 2.0000000000000000e-02 9.2000000000000011e+02 0 0 0
3949 1 -1.3005972931114525e-02 -7.3273908715614358e-02 3.3591109554578052e-01 2.0000000000000000e-02 9.2000000000000011e+02 0 0 0
3948 1 6.9343857609687311e-03 1.9389083471158277e-02 4.6956903042707282e-01 2.0000000000000000e-02 9.2000000000000011e+02 0 0 0
3947 1 3.4889715094700563e-04 -8.4284007771854408e-02 1.9533167333269402e-01 2.0000000000000000e-02 9.2000000000000011e+02 0 0 0
10 1 1.6914929129205294e-02 -6.4961423707990892e-02 1.8993043489077863e-01 2.0000000000000000e-02 9.2000000000000011e+02 0 0 0
11 1 7.7045378741850638e-03 -8.0834948428293127e-02 3.0541488374052289e-01 2.0000000000000000e-02 9.2000000000000011e+02 0 0 0
12 1 7.5522692588812418e-02 -3.5467217216441756e-02 2.9888072290351847e-01 2.0000000000000000e-02 9.2000000000000011e+02 0 0 0
13 1 -6.8113846893553875e-02 3.0026521833552703e-02 2.1043928285815819e-01 2.0000000000000000e-02 9.2000000000000011e+02 0 0 0
14 1 3.2310808157104665e-03 -5.5924645023363508e-02 2.3919448503079771e-01 2.0000000000000000e-02 9.2000000000000011e+02 0 0 0
3942 1 -2.0264266177685867e-03 7.6910494945649804e-02 5.3668797116528610e-02 2.0000000000000000e-02 9.2000000000000011e+02 0 0 0
3938 1 3.6151806357977406e-02 2.3589016879448130e-02 4.2185322640832429e-01 2.0000000000000000e-02 9.2000000000000011e+02 0 0 0
3936 1 7.6545109538206368e-02 4.7415505545344877e-02 2.8723728916537727e-01 2.0000000000000000e-02 9.2000000000000011e+02 0 0 0
18 1 -2.8447923048105068e-02 1.6333829884291138e-03 4.1048338402719547e-01 2.0000000000000000e-02 9.2000000000000011e+02 0 0 0
19 1 3.8195062940375876e-02 -1.2386415998081376e-03 2.0389329017377730e-01 2.0000000000000000e-02 9.2000000000000011e+02 0 0 0
20 1 -6.6167211630169583e-03 9.3507338624080442e-03 4.0725978676840152e-01 2.0000000000000000e-02 9.2000000000000011e+02 0 0 0
21 1 4.5227371408120873e-02 3.0422538090644071e-02 3.1908842692856199e-01 2.0000000000000000e-02 9.2000000000000011e+02 0 0 0
3931 1 1.1719814482049729e-02 1.0489744666547897e-02 4.3638982334214765e-01 2.0000000000000000e-02 9.2000000000000011e+02 0 0 0
3929 1 3.0246209186533004e-02 -2.3354462779340834e-02 1.5536410855127081e-01 2.0000000000000000e-02 9.2000000000000011e+02 0 0 0
3928 1 -6.7824485587256664e-03 -2.2555609606308799e-02 4.2327868811305197e-01 2.0000000000000000e-02 9.2000000000000011e+02 0 0 0
25 1 -3.1023879350873605e-02 -1.0034911413410128e-02 2.7346838063552387e-01 2.0000000000000000e-02 9.2000000000000011e+02 0 0 0
26 1 3.8124431402767507e-02 3.1278598669012878e-02 2.6638921711934255e-01 2.0000000000000000e-02 9.2000000000000011e+02 0 0 0
27 1 -6.9937894098995687e-02 -1.1102006789088997e-02 1.1410721067197180e-01 2.0000000000000000e-02 9.2000000000000011e+02 0 0 0
3927 1 3.6663005391299693e-02 4.5619655422248308e-02 2.2265774131860513e-01 2.0000000000000000e-02 9.2000000000000011e+02 0 0 0
29 1 -5.0523126454636944e-03 -2.0526610772630093e-02 1.8849942125298469e-01 2.0000000000000000e-02 9.2000000000000011e+02 0 0 0
3925 1 -7.7827321501223540e-02 1.1338294008208247e-02 9.9940283180673054e-03 2.0000000000000000e-02 9.2000000000000011e+02 0 0 0
31 1 5.1916025872632318e-02 5.2398306882798423e-02 4.4868410293689520e-01 2.0000000000000000e-02 9.2000000000000011e+02 0 0 0
32 1 -1.9974123775173273e-02 5.3979821963894808e-02 1.8755188961826974e-01 2.0000000000000000e-02 9.2000000000000011e+02 0 0 0
3923 1 -2.4505916434352147e-02 2.9697449554555222e-02 3.4853999702537919e-01 2.0000000000000000e-02 9.2000000000000011e+02 0 0 0
34 1 5.4569150331934289e-02 -4.6329188902287911e-02 2.0140732379940976e-01 2.0000000000000000e-02 9.2000000000000011e+02 0 0 0
35 1 -7.4718981191723294e-02 9.2948114633302145e-03 3.5007968164153380e-01 2.0000000000000000e-02 9.2000000000000011e+02 0 0 0
36 1 8.1762422918210675e-02 -3.7651217897577118e-02 4.0970945527464703e-01 2.0000000000000000e-02 9.2000000000000011e+02 0 0 0
3921 1 2.8620530562854348e-02 -8.5330705401746476e-02 3.7604257953777098e-01 2.0000000000000000e-02 9.2000000000000011e+02 0 0 0
38 1 8.6573395912357881e-02 -6.4691990263728447e-05 3.4249738441251909e-01 2.0000000000000000e-02 9.2000000000000011e+02 0 0 0
3920 1 -1.6405195278820613e-02 -7.4118938358068764e-02 9.4840892721843553e-02 2.0000000000000000e-02 9.2000000000000011e+02 0 0 0
40 1 4.4801853379837789e-02 4.2367863564293222e-02 2.8158403126372705e-01 2.0000000000000000e-02 9.2000000000000011e+02 0 0 0
3919 1 -6.6806895852116452e-02 6.0317608435134742e-02 4.9189985365557326e-01 2.0000000000000000e-02 9.2000000000000011e+02 0 0 0
3918 1 -6.9878533040179935e-02 -1.9748422850133354e-02 2.6246573018496649e-01 2.0000000000000000e-02 9.2000000000000011e+02 0 0 0
3917 1 -7.3130312157695554e-02 -5.2459930266752830e-02 1.0563829698492799e-01 2.0000000000000000e-02 9.2000000000000011e+02 0 0 0
3916 1 -4.3745813085013996e-03 8.9934311500374384e-02 3.6120756256001452e-01 2.0000000000000000e-02 9.2000000000000011e+02 0 0 0
45 1 4.8262983715555693e-02 3.3154854767129525e-03 3.4229749313621849e-01 2.0000000000000000e-02 9.2000000000000011e+02 0 0 0
46 1 -1.9553481338807459e-02 2.6196409887449659e-02 2.5944523400720060e-01 2.0000000000000000e-02 9.2000000000000011e+02 0 0 0
47 1 -1.9165090769344934e-02 1.1093290735766665e-02 2.5688187024023347e-02 2.0000000000000000e-02 9.2000000000000011e+02 0 0 0
3914 1 -8.4298244730049682e-02 3.1575687941642776e-02 3.0249877559727756e-01 2.0000000000000000e-02 9.2000000000000011e+02 0 0 0
49 1 2.3216426430814386e-02 9.6343481891571561e-04 4.8874384224739231e-01 2.0000000000000000e-02 9.2000000000000011e+02 0 0 0
3910 1 5.8108380578305578e-02 -1.3329496152181524e-02 3.7181527398217729e-01 2.0000000000000000e-02 9.2000000000000011e+02 0 0 0
3909 1 -6.5498737573591481e-02 -5.8796046709903196e-02 4.9401356164310040e-01 2.0000000000000000e-02 9.2000000000000011e+02 0 0 0
3907 1 4.2959073423854889e-02 6.2417201644828169e-02 1.8503176155268458e-01 2.0000000000000000e-02 9.2000000000000011e+02 0 0 0
3904 1 -5.1483878875593969e-02 -5.1249595380296574e-02 3.7530312913346026e-01 2.0000000000000000e-02 9.2000000000000011e+02 0 0 0
54 1 -1.5921335586240024e-02 -5.7224404980519110e-02 1.3234382188928959e-01 2.0000000000000000e-02 9.2000000000000011e+02 0 0 0
55 1 1.3708955491791505e-02 -4.0450587706823964e-02 4.2552833471280682e-01 2.0000000000000000e-02 9.2000000000000011e+02 0 0 0
3902 1 -3.6180328038198858e-02 -5.4142653923083789e-02 1.5543674025592449e-01 2.0000000000000000e-02 9.2000000000000011e+02 0 0 0
3901 1 -5.5313520069525231e-02 -1.0748796863177413e-02 3.7302940137447271e-01 2.0000000000000000e-02 9.2000000000000011e+02 0 0 0
3900 1 3.3676679634273204e-02 -8.3463117770902970e-02 7.2359410207842506e-02 2.0000000000000000e-02 9.2000000000000011e+02 0 0 0
59 1 4.8680215004749429e-02 -3.0847484824896285e-02 1.0835549667793247e-01 2.0000000000000000e-02 9.2000000000000011e+02 0 0 0
3899 1 1.4754059546087465e-02 3.9962067077292954e-02 8.5002937452086633e-02 2.0000000000000000e-02 9.2000000000000011e+02 0 0 0
61 1 -2.9104613979311699e-02 5.0771195305367008e-02 1.3994703783768439e-01 2.0000000000000000e-02 9.2000000000000011e+02 0 0 0
3898 1 -3.6140372890169629e-02 6.0021283293609715e-02 9.9948479696555306e-03 2.0000000000000000e-02 9.2000000000000011e+02 0 0 0
3897 1 7.7535785819788303e-02 4.5730278052634299e-02 9.9808231943994321e-03 2.0000000000000000e-02 9.2000000000000011e+02 0 0 0
64 1 2.8914867355162480e-02 3.7522362061280026e-02 4.5204431602892825e-01 2.0000000000000000e-02 9.2000000000000011e+02 0 0 0
65 1 7.5911746023428017e-04 -7.2957192370329861e-03 1.3428059450086727e-01 2.0000000000000000e-02 9.2000000000000011e+02 0 0 0
66 1 4.3763919054947670e-02 2.2518137884411624e-02 6.4259466046487787e-02 2.0000000000000000e-02 9.2000000000000011e+02 0 0 0
67 1 -4.4638481706839171e-02 -7.8166489298067979e-02 4.9427522227013437e-01 2.0000000000000000e-02 9.2000000000000011e+02 0 0 0
68 1 1.1353335998659089e-02 5.7777482177240359e-02 2.8714289202477983e-01 2.0000000000000000e-02 9.2000000000000011e+02 0 0 0
3896 1 7.8233996136352166e-02 3.4536262560039450e-02 3.3550169705879057e-01 2.0000000000000000e-02 9.2000000000000011e+02 0 0 0
70 1 6.4024352997195499e-02 -2.2092505401452130e-02 6.9450661310671083e-02 2.0000000000000000e-02 9.2000000000000011e+02 0 0 0
3895 1 5.2471643515134556e-04 -8.1489451890906263e-03 2.2039161591493633e-01 2.0000000000000000e-02 9.2000000000000011e+02 0 0 0
3893 1 8.2663703908623209e-02 -2.6398315506785675e-03 2.8489591188912956e-02 2.0000000000000000e-02 9.2000000000000011e+02 0 0 0
3891 1 9.0025586899323731e-02 2.0348630113598207e-03 2.2584764514546543e-01 2.0000000000000000e-02 9.2000000000000011e+02 0 0 0
74 1 -6.1038927365959735e-02 -3.4508989778435625e-02 4.2310396068035211e-01 2.0000000000000000e-02 9.2000000000000011e+02 0 0 0
3889 1 9.8245132786916305e-03 -4.1834218171892694e-02 3.5362396214223041e-01 2.0000000000000000e-02 9.2000000000000011e+02 0 0 0
76 1 -2.9917165647254679e-02 -6.5363785427260929e-02 6.0525673845096946e-02 2.0000000000000000e-02 9.2000000000000011e+02 0 0 0
77 1 -6.3703466991534674e-02 -6.3603562613625875e-02 4.7469404550693961e-01 2.0000000000000000e-02 9.2000000000000011e+02 0 0 0
3888 1 -3.9037901143786857e-02 -6.0326400335582772e-02 2.2329882566998632e-01 2.0000000000000000e-02 9.2000000000000011e+02 0 0 0
3887 1 6.2616761652637867e-02 3.4912086812512386e-02 2.0458880515699804e-01 2.0000000000000000e-02 9.2000000000000011e+02 0 0 0
80 1 -2.0181047550826316e-02 6.4097267015005746e-02 2.5147528398968277e-01 2.0000000000000000e-02 9.2000000000000011e+02 0 0 0
81 1 -1.2775677264281082e-02 8.9110816853886221e-02 4.1832451006959342e-01 2.0000000000000000e-02 9.2000000000000011e+02 0 0 0
3885 1 -5.6554063383682240e-03 2.3387796861921550e-02 1.2071691671045036e-01 2.0000000000000000e-02 9.2000000000000011e+02 0 0 0
3884 1 2.8365542962700156e-02 5.4867820921337691e-02 1.0299239681508514e-01 2.0000000000000000e-02 9.2000000000000011e+02 0 0 0
84 1 -7.3831931944744703e-02 1.5708408478357600e-02 2.2316051236143081e-01 2.0000000000000000e-02 9.2000000000000011e+02 0 0 0
3883 1 4.7804010574267662e-02 7.6294614403705316e-02 2.3856913127147580e-01 2.0000000000000000e-02 9.2000000000000011e+02 0 0 0
3882 1 1.8480581871852402e-02 -8.8106675047951097e-02 2.3883214160654892e-01 2.0000000000000000e-02 9.2000000000000011e+02 0 0 0
3881 1 -5.9990915835723024e-02 -4.0487713909590399e-03 4.4638837026282302e-01 2.0000000000000000e-02 9.2000000000000011e+02 0 0 0
3880 1 3.0960391202295032e-02 -7.0232326466709502e-02 2.0314896822050046e-01 2.0000000000000000e-02 9.2000000000000011e+02 0 0 0
3879 1 7.6625906382381953e-03 1.9890350490442864e-02 3.1705649397419289e-01 2.0000000000000000e-02 9.2000000000000011e+02 0 0 0
90 1 -5.6878590817775854e-02 -6.9769543171624482e-02 4.2679091088552765e-02 2.0000000000000000e-02 9.2000000000000011e+02 0 0 0
3876 1 -6.4321271467853366e-02 -6.2956441389533116e-02 5.9941629797323800e-02 2.0000000000000000e-02 9.2000000000000011e+02 0 0 0
3874 1 -1.1150123127683797e-02 -4.0396963654402325e-02 1.6188822281930015e-01 2.0000000000000000e-02 9.2000000000000011e+02 0 0 0
3873 1 8.3623690023609282e-02 3.0604569412866579e-02 2.5786803955271514e-01 2.0000000000000000e-02 9.2000000000000011e+02 0 0 0
3865 1 3.2844431879772887e-02 6.2405626571630339e-02 3.5706812020698925e-01 2.0000000000000000e-02 9.2000000000000011e+02 0 0 0
3862 1 3.2159515614308673e-02 8.4086468636027048e-02 5.0296909707951983e-02 2.0000000000000000e-02 9.2000000000000011e+02 0 0 0
3859 1 7.4593416595126180e-02 -1.0448963666050448e-02 2.2345909785088289e-01 2.0000000000000000e-02 9.2000000000000011e+02 0 0 0
97 1 6.6289022397484187e-02 4.1093239026008747e-02 2.5130162852265570e-01 2.0000000000000000e-02 9.2000000000000011e+02 0 0 0
98 1 1.6864570595001779e-02 5.2640616175785443e-02 3.0560925373606435e-01 2.0000000000000000e-02 9.2000000000000011e+02 0 0 0
3858 1 -7.6885310279723645e-02 6.1504370662884735e-04 1.4243251340005891e-01 2.0000000000000000e-02 9.2000000000000011e+02 0 0 0
100 1 -2.0526945164975538e-02 -1.9355275467752758e-02 3.6523800678210977e-01 2.0000000000000000e-02 9.2000000000000011e+02 0 0 0
101 1 3.8402525043162751e-02 3.3554616174793023e-02 3.5391688681759065e-01 2.0000000000000000e-02 9.2000000000000011e+02 0 0 0
3857 1 -6.0114753427085695e-03 2.6346036410430301e-02 1.8861775917198850e-01 2.0000000000000000e-02 9.2000000000000011e+02 0 0 0
103 1 6.3809499543017359e-04 2.5219776866490663e-02 3.9755203360051794e-01 2.0000000000000000e-02 9.2000000000000011e+02 0 0 0
104 1 8.9789105169505570e-02 6.3520829160556812e-03 4.5126669133993191e-01 2.0000000000000000e-02 9.2000000000000011e+02 0 0 0
105 1 2.1871479784126454e-02 3.0782141618649516e-02 3.9969013835374012e-01 2.0000000000000000e-02 9.2000000000000011e+02 0 0 0
3856 1 -3.4199958553630277e-03 8.9430135993990967e-02 2.4578905522786293e-01 2.0000000000000000e-02 9.2000000000000011e+02 0 0 0
107 1 -6.1706393368340350e-02 3.7444058501692301e-02 2.4357846124653023e-02 2.0000000000000000e-02 9.2000000000000011e+02 0 0 0
108 1 -4.5650589904831305e-02 -5.8387885457414621e-02 4.9166391225604950e-01 2.0000000000000000e-02 9.2000000000000011e+02 0 0 0
3855 1 -7.1590559550059579e-02 1.5072790934786997e-02 1.8994266604304980e-01 2.0000000000000000e-02 9.2000000000000011e+02 0 0 0
110 1 7.0490609059459780e-02 1.7533999938169627e-02 4.8216524430291713e-01 2.0000000000000000e-02 9.2000000000000011e+02 0 0 0
111 1 -6.0203765179846519e-02 7.1591187748362020e-03 2.0838662593693800e-02 2.0000000000000000e-02 9.2000000000000011e+02 0 0 0
112 1 1.2607899825656965e-02 -3.3950229089212518e-02 4.7562276662714659e-01 2.0000000000000000e-02 9.2000000000000011e+02 0 0 0
3854 1 1.2912450553201905e-02 -6.2950120546099469e-02 1.1355260746600676e-01 2.0000000000000000e-02 9.2000000000000011e+02 0 0 0
114 1 2.0523076152598171e-02 -1.8479258708236641e-02 2.6943631383730415e-01 2.0000000000000000e-02 9.2000000000000011e+02 0 0 0
3850 1 -5.2951396042294922e-02 -6.3898388111837973e-03 5.9955758707350239e-02 2.0000000000000000e-02 9.2000000000000011e+02 0 0 0
116 1 1.7643346926602185e-02 -6.5321462849069895e-03 1.7906907910574868e-01 2.0000000000000000e-02 9.2000000000000011e+02 0 0 0
117 1 5.4844546666986696e-02 7.1403327007676015e-02 2.4698916085242793e-02 2.0000000000000000e-02 9.2000000000000011e+02 0 0 0
3848 1 2.6961967973622568e-02 -4.4492492444904115e-02 3.2198333755400860e-01 2.0000000000000000e-02 9.2000000000000011e+02 0 0 0
119 1 6.4287530971429752e-02 -2.8745999046880105e-02 4.0586276268274490e-01 2.0000000000000000e-02 9.2000000000000011e+02 0 0 0
120 1 -7.5752882129232688e-02 -4.8612710138183454e-02 1.8726541401575325e-01 2.0000000000000000e-02 9.2000000000000011e+02 0 0 0
3847 1 3.7967327086712709e-02 -1.3160615834455585e-02 3.6809712997022931e-01 2.0000000000000000e-02 9.2000000000000011e+02 0 0 0
122 1 -7.6388737982941934e-02 -4.7636295247958031e-02 1.3686480425736278e-01 2.0000000000000000e-02 9.2000000000000011e+02 0 0 0
3844 1 -5.2539644518788398e-02 7.3120378384897142e-02 2.1906501774963730e-01 2.0000000000000000e-02 9.2000000000000011e+02 0 0 0
3841 1 4.4666616695469383e-02 4.8359434824215604e-04 2.8988998914695580e-01 2.0000000000000000e-02 9.2000000000000011e+02 0 0 0
3840 1 -7.0885080030392719e-02 -3.3030647385355799e-02 1.2012911357718858e-01 2.0000000000000000e-02 9.2000000000000011e+02 0 0 0
3839 1 -9.0972245275214615e-03 8.7818426649032666e-02 9.9889388295907027e-03 2.0000000000000000e-02 9.2000000000000011e+02 0 0 0
127 1 -8.3145300905168432e-02 -3.1923742914042173e-02 2.8550858768897031e-01 2.0000000000000000e-02 9.2000000000000011e+02 0 0 0
128 1 -8.9271558315345653e-02 1.1475637677899645e-02 1.1711084458043651e-01 2.0000000000000000e-02 9.2000000000000011e+02 0 0 0
129 1 2.4572196987444818e-02 -5.2069625761392471e-02 2.8795793267455583e-01 2.0000000000000000e-02 9.2000000000000011e+02 0 0 0
130 1 3.9039989719221020e-02 1.9899629390535644e-02 4.5934395459011951e-01 2.0000000000000000e-02 9.2000000000000011e+02 0 0 0
131 1 -6.5553451144905956e-03 4.7866307281628800e-02 4.9471364262776490e-01 2.0000000000000000e-02 9.2000000000000011e+02 0 0 0
3838 1 6.5438991720221079e-02 -6.1819186067888651e-02 1.6775559548841562e-01 2.0000000000000000e-02 9.2000000000000011e+02 0 0 0
3836 1 -8.2520034883429405e-02 -1.4754793908761923e-03 3.8486473571863217e-01 2.0000000000000000e-02 9.2000000000000011e+02 0 0 0
134 1 -3.8844719831430362e-02 -2.9403110381242921e-03 3.6312410603209216e-01 2.0000000000000000e-02 9.2000000000000011e+02 0 0 0
3834 1 -5.0575666118005423e-02 7.4521799173261918e-02 1.7956433634470090e-01 2.0000000000000000e-02 9.2000000000000011e+02 0 0 0
136 1 7.4276109900249535e-02 5.0824719252358361e-02 3.6732103456651805e-01 2.0000000000000000e-02 9.2000000000000011e+02 0 0 0
137 1 1.9839993394500533e-02 -8.7886011709169765e-02 1.9315514816735857e-01 2.0000000000000000e-02 9.2000000000000011e+02 0 0 0
3833 1 -8.9797696941324737e-02 6.3815743013248463e-03 3.6287187241312890e-01 2.0000000000000000e-02 9.2000000000000011e+02 0 0 0
3832 1 -6.0241132017980439e-02 6.6867628437073293e-02 3.8792237402206020e-01 2.0000000000000000e-02 9.2000000000000011e+02 0 0 0
3830 1 -8.1028052474981224e-02 -1.3335318994640922e-02 4.8879763609284327e-01 2.0000000000000000e-02 9.2000000000000011e+02 0 0 0
3829 1 7.1923820878045483e-02 -3.5867003669686759e-02 2.6926770674985157e-02 2.0000000000000000e-02 9.2000000000000011e+02 0 0 0
142 1 -4.1091240923403306e-02 -8.0110412099527781e-02 3.5878266906127797e-02 2.0000000000000000e-02 9.2000000000000011e+02 0 0 0
3826 1 -3.1228964427701646e-02 7.1219137135574553e-02 4.8368422217646068e-01 2.0000000000000000e-02 9.2000000000000011e+02 0 0 0
3824 1 6.6120100737234316e-02 6.1069521216185203e-02 2.5064431104736890e-01 2.0000000000000000e-02 9.2000000000000011e+02 0 0 0
3821 1 -6.8280603258478414e-02 2.1786075947429109e-02 3.0937493910159952e-01 2.0000000000000000e-02 9.2000000000000011e+02 0 0 0
3820 1 -3.1699154992605581e-02 -5.3992426073271219e-02 3.7574422599417168e-01 2.0000000000000000e-02 9.2000000000000011e+02 0 0 0
3819 1 4.6380351709095081e-02 7.7144463833649118e-02 4.8100653518111819e-01 2.0000000000000000e-02 9.2000000000000011e+02 0 0 0
148 1 -1.4266388254357129e-02 -5.0771545400219295e-03 2.8319239867564905e-01 2.0000000000000000e-02 9.2000000000000011e+02 0 0 0
149 1 1.1116968251748528e-02 -7.2603436416548053e-02 2.0747382018102323e-01 2.0000000000000000e-02 9.2000000000000011e+02 0 0 0
3818 1 5.9720164278619738e-02 2.2148289622784277e-02 2.8942722580554209e-01 2.0000000000000000e-02 9.2000000000000011e+02 0 0 0
151 1 6.5364157609790571e-02 -2.6035976569798742e-02 3.5825944809408922e-01 2.0000000000000000e-02 9.2000000000000011e+02 0 0 0
3817 1 2.8392833115316259e-02 -4.5702378725775497e-02 9.9969753667272215e-03 2.0000000000000000e-02 9.2000000000000011e+02 0 0 0
153 1 2.1314468289257243e-02 8.7441435058863565e-02 2.6769037284990355e-01 2.0000000000000000e-02 9.2000000000000011e+02 0 0 0
154 1 -3.9678237495143230e-02 -4.9399857011206492e-02 3.4693507369776011e-01 2.0000000000000000e-02 9.2000000000000011e+02 0 0 0
3815 1 2.9903367858357753e-02 -7.6784332056789792e-02 4.0629023724591595e-01 2.0000000000000000e-02 9.2000000000000011e+02 0 0 0
3812 1 2.7915787726731624e-02 6.8757905626028043e-02 2.6498972319478292e-01 2.0000000000000000e-02 9.2000000000000011e+02 0 0 0
157 1 5.4303026046755062e-02 -7.1837617688224290e-02 1.3638834059221194e-01 2.0000000000000000e-02 9.2000000000000011e+02 0 0 0
3811 1 1.8656991637794860e-02 -8.2021886285918860e-02 1.1488154515332914e-01 2.0000000000000000e-02 9.2000000000000011e+02 0 0 0
159 1 -8.4361949077581874e-03 -4.1252781296363977e-02 4.3012336066341794e-01 2.0000000000000000e-02 9.2000000000000011e+02 0 0 0
3810 1 3.5821802482174626e-02 -3.4021979702672990e-02 1.8992035576509764e-01 2.0000000000000000e-02 9.2000000000000011e+02 0 0 0
3809 1 4.2914567781200869e-02 -5.7498550209355112e-02 4.3337447646509375e-02 2.0000000000000000e-02 9.2000000000000011e+02 0 0 0
162 1 6.7764114345421854e-04 -3.5404052594418027e-02 2.1294762868410894e-01 2.0000000000000000e-02 9.2000000000000011e+02 0 0 0
163 1 -1.6238195591926824e-02 6.9565229219405375e-02 4.4685825496416820e-01 2.0000000000000000e-02 9.2000000000000011e+02 0 0 0
164 1 -7.1762224189522661e-02 -1.4311518787965860e-02 2.8161723052314674e-01 2.0000000000000000e-02 9.2000000000000011e+02 0 0 0
165 1 5.1731374071283490e-02 1.6243485725486055e-02 4.8891149771474524e-01 2.0000000000000000e-02 9.2000000000000011e+02 0 0 0
3805 1 -3.1641060602982871e-02 -4.5903768012319095e-02 2.7403427858508361e-01 2.0000000000000000e-02 9.2000000000000011e+02 0 0 0
167 1 5.5260620441097722e-03 -2.7770793727514759e-02 4.3861283749986202e-01 2.0000000000000000e-02 9.2000000000000011e+02 0 0 0
168 1 3.3798516650919347e-02 -1.9863703664724938e-02 4.9318596179886187e-01 2.0000000000000000e-02 9.2000000000000011e+02 0 0 0
169 1 2.1007695607562594e-02 -8.7541085272415858e-02 4.7294041219709759e-01 2.0000000000000000e-02 9.2000000000000011e+02 0 0 0
170 1 -4.0381636412291283e-02 -2.1995710468025568e-04 4.4704671692489040e-01 2.0000000000000000e-02 9.2000000000000011e+02 0 0 0
171 1 7.9430029945650918e-02 -4.2399600313749161e-02 1.2313455460465864e-01 2.0000000000000000e-02 9.2000000000000011e+02 0 0 0
3803 1 5.9006350839480970e-02 -3.2522578043921765e-02 2.6413714364905500e-01 2.0000000000000000e-02 9.2000000000000011e+02 0 0 0
3800 1 -7.3120137896590068e-02 5.2550599322912568e-02 3.2126062212840062e-01 2.0000000000000000e-02 9.2000000000000011e+02 0 0 0
174 1 5.4745700093293902e-02 4.6988994228638892e-02 1.8046825233480554e-01 2.0000000000000000e-02 9.2000000000000011e+02 0 0 0
175 1 -1.2770303125498278e-03 7.2339804507756081e-02 1.3852452043277841e-01 2.0000000000000000e-02 9.2000000000000011e+02 0 0 0
3799 1 -4.0252888410284328e-02 3.2824106855391284e-03 2.8518558942723116e-01 2.0000000000000000e-02 9.2000000000000011e+02 0 0 0
3797 1 8.0272049680938529e-03 -7.4146086974577516e-02 2.2909579744455993e-01 2.0000000000000000e-02 9.2000000000000011e+02 0 0 0
178 1 8.0920259983110532e-02 -3.9485365687333844e-02 2.5604075078002742e-01 2.0000000000000000e-02 9.2000000000000011e+02 0 0 0
3794 1 -1.9068353089405694e-02 -7.0520421168571837e-02 4.0043871540625897e-01 2.0000000000000000e-02 9.2000000000000011e+02 0 0 0
180 1 6.5944286626672788e-02 -4.1188054974763827e-02 4.2140429644175331e-01 2.0000000000000000e-02 9.2000000000000011e+02 0 0 0
181 1 -4.4103239598047704e-02 3.0111849147190620e-02 2.6039313940417763e-01 2.0000000000000000e-02 9.2000000000000011e+02 0 0 0
182 1 1.8370766526884939e-02 -1.3956524899335070e-02 7.8725959355275280e-02 2.0000000000000000e-02 9.2000000000000011e+02 0 0 0
3793 1 5.0507789524803129e-02 1.9135393176646801e-03 9.6071778497190508e-02 2.0000000000000000e-02 9.2000000000000011e+02 0 0 0
3792 1 6.1945481864639470e-03 -6.0441587369473027e-02 4.9798513624932234e-01 2.0000000000000000e-02 9.2000000000000011e+02 0 0 0
185 1 1.6485610920804528e-02 7.0929351595355045e-02 1.0330784642781740e-01 2.0000000000000000e-02 9.2000000000000011e+02 0 0 0
186 1 8.4930112745583257e-03 9.3675033005748264e-03 2.2792092674789804e-01 2.0000000000000000e-02 9.2000000000000011e+02 0 0 0
3788 1 -2.2118926855845392e-02 -5.8860300621814826e-02 3.4630143330483154e-01 2.0000000000000000e-02 9.2000000000000011e+02 0 0 0
188 1 -6.0829089513811038e-03 -6.2285959593810943e-04 4.5919336623047541e-01 2.0000000000000000e-02 9.2000000000000011e+02 0 0 0
189 1 -1.6359026969253541e-02 8.0924211004922524e-03 5.6996077363541571e-02 2.0000000000000000e-02 9.2000000000000011e+02 0 0 0
3787 1 6.1070841906758336e-02 -6.6147427310816242e-02 2.1472262410848306e-01 2.0000000000000000e-02 9.2000000000000011e+02 0 0 0
3786 1 3.2735483050300662e-02 -6.3741871091757107e-02 1.7778973750862137e-01 2.0000000000000000e-02 9.2000000000000011e+02 0 0 0
192 1 -1.1304345799982128e-02 2.1300760473091348e-03 7.5341381771988777e-02 2.0000000000000000e-02 9.2000000000000011e+02 0 0 0
193 1 -8.9774459681499955e-02 6.9034672386558363e-03 1.9078300742510271e-01 2.0000000000000000e-02 9.2000000000000011e+02 0 0 0
3785 1 -4.1910239207591267e-04 -3.9217775504770463e-03 2.3991388031068914e-01 2.0000000000000000e-02 9.2000000000000011e+02 0 0 0
195 1 3.8536650496959930e-02 -6.9600495459554712e-02 4.2280663249496975e-01 2.0000000000000000e-02 9.2000000000000011e+02 0 0 0
3784 1 8.4354008656779333e-02 -3.1465548403974891e-02 4.6819079249734497e-01 2.0000000000000000e-02 9.2000000000000011e+02 0 0 0
3783 1 3.5415160260725005e-02 -1.7424865784525748e-02 1.7609629558332091e-01 2.0000000000000000e-02 9.2000000000000011e+02 0 0 0
198 1 -2.7505676919669569e-02 8.5400875411903096e-02 3.3050030060501429e-01 2.0000000000000000e-02 9.2000000000000011e+02 0 0 0
3781 1 -9.2712304750424152e-03 3.7398046779484335e-02 9.9300162075385816e-03 2.0000000000000000e-02 9.2000000000000011e+02 0 0 0
200 1 4.4726681724468120e-03 8.3236584282949264e-02 1.5421755514376911e-01 2.0000000000000000e-02 9.2000000000000011e+02 0 0 0
3780 1 1.6774802099492631e-02 -6.8872979514496543e-02 2.6094166140333299e-02 2.0000000000000000e-02 9.2000000000000011e+02 0 0 0
3779 1 5.6244158800839883e-02 -6.1752598308344099e-02 1.1925183373179904e-01 2.0000000000000000e-02 9.2000000000000011e+02 0 0 0
203 1 7.1008250994696251e-02 1.8655565215069194e-02 1.6321732544605747e-01 2.0000000000000000e-02 9.2000000000000011e+02 0 0 0
3778 1 7.2937831219286500e-02 -4.6415345857565883e-02 9.9814965109584677e-03 2.0000000000000000e-02 9.2000000000000011e+02 0 0 0
205 1 3.7836461544517669e-02 1.7856804635638237e-02 3.9325488122680069e-01 2.0000000000000000e-02 9.2000000000000011e+02 0 0 0
3777 1 -3.7950436539341902e-02 9.6351003458888841e-03 1.1225407600385597e-01 2.0000000000000000e-02 9.2000000000000011e+02 0 0 0
3776 1 -8.9663542473357088e-02 -8.7726074372748934e-03 1.7839103483889338e-01 2.0000000000000000e-02 9.2000000000000011e+02 0 0 0
208 1 -7.7824571070415224e-02 2.5947671448518742e-02 4.3456103098886645e-01 2.0000000000000000e-02 9.2000000000000011e+02 0 0 0
3774 1 -7.6875218302892762e-02 2.4456469212922046e-02 2.5053466555625098e-02 2.0000000000000000e-02 9.2000000000000011e+02 0 0 0
3773 1 3.2429457143811430e-02 3.4502285146880952e-02 3.8309711345679170e-01 2.0000000000000000e-02 9.2000000000000011e+02 0 0 0
3772 1 5.1783504551576515e-02 -6.9224549762727142e-02 1.8028839271646210e-01 2.0000000000000000e-02 9.2000000000000011e+02 0 0 0
3768 1 8.2245775112172445e-02 3.6671786245534480e-02 1.1866069541577956e-01 2.0000000000000000e-02 9.2000000000000011e+02 0 0 0
3765 1 6.2120894367695370e-02 3.6793369727533658e-02 1.6501937805319111e-01 2.0000000000000000e-02 9.2000000000000011e+02 0 0 0
214 1 -1.8329341850510567e-02 2.3316715185243485e-02 3.6640098080205558e-01 2.0000000000000000e-02 9.2000000000000011e+02 0 0 0
3764 1 7.3391701410263702e-02 -1.7047172305162902e-03 1.0908567859760140e-01 2.0000000000000000e-02 9.2000000000000011e+02 0 0 0
216 1 -5.8271277944372035e-02 4.0522461131118098e-02 4.3197071777009333e-01 2.0000000000000000e-02 9.2000000000000011e+02 0 0 0
217 1 5.3224682996302737e-02 2.0294418148304301e-02 3.5186117503997222e-01 2.0000000000000000e-02 9.2000000000000011e+02 0 0 0
3763 1 -7.7778141968761733e-02 -4.5293533938321119e-02 3.2368039566751239e-01 2.0000000000000000e-02 9.2000000000000011e+02 0 0 0
3761 1 -1.6875952419792780e-02 -5.0006808174472978e-02 6.6399131450841448e-02 2.0000000000000000e-02 9.2000000000000011e+02 0 0 0
220 1 4.5709962041086676e-02 3.8073648023900168e-02 4.6427700368010938e-01 2.0000000000000000e-02 9.2000000000000011e+02 0 0 0
3760 1 -3.9231259886134261e-02 -2.6205067694886355e-02 4.7119238784477524e-01 2.0000000000000000e-02 9.2000000000000011e+02 0 0 0
222 1 -1.5000679636528715e-02 -7.4632890534767474e-02 2.3254168963613128e-01 2.0000000000000000e-02 9.2000000000000011e+02 0 0 0
3754 1 5.0680567643983682e-02 3.6983645713839816e-02 1.0362994402792522e-01 2.0000000000000000e-02 9.2000000000000011e+02 0 0 0
3752 1 -6.2418991666223214e-03 -5.5719743511643278e-02 3.0689078014214394e-01 2.0000000000000000e-02 9.2000000000000011e+02 0 0 0
225 1 -5.3729985013154097e-02 -5.0850643536640185e-02 2.7745428242630538e-01 2.0000000000000000e-02 9.2000000000000011e+02 0 0 0
226 1 7.8430829524423082e-02 -9.3888656899920077e-03 6.4151149192598594e-02 2.0000000000000000e-02 9.2000000000000011e+02 0 0 0
227 1 7.1347137560289070e-02 1.9928829880935351e-02 1.9469254781179299e-01 2.0000000000000000e-02 9.2000000000000011e+02 0 0 0
228 1 -4.2911450908851886e-02 -3.5447757911605850e-02 4.1439426026595116e-01 2.0000000000000000e-02 9.2000000000000011e+02 0 0 0
3748 1 -4.5523452321661377e-02 1.9959812366918867e-02 1.5641830732618384e-01 2.0000000000000000e-02 9.2000000000000011e+02 0 0 0
230 1 -2.2075438351393476e-03 -5.7716667005691800e-02 3.4544437913716253e-01 2.0000000000000000e-02 9.2000000000000011e+02 0 0 0