header line input data

6321 atoms
2 atom types
6 bonds
1 bond types

-20.0 120.0 xlo xhi
-20.0 120.0 ylo yhi
-5.0 5.0 zlo zhi

Atoms

1 1 58.098159 19.647527 0.0 1.0 910.0 1
2 1 8.059197 6.134007 0.0 1.0 910.0 1
3 1 71.265893 47.19127 0.0 1.0 910.0 1
4 1 89.736068 71.65354 0.0 1.0 910.0 1
5 1 59.635612 31.96855 0.0 1.0 910.0 1
6 1 35.894599 12.250162 0.0 1.0 910.0 1
7 1 43.712153 14.523242 0.0 1.0 910.0 1
8 1 23.648612 20.664443 0.0 1.0 910.0 1
9 1 14.257222 82.747366 0.0 1.0 910.0 1
10 1 75.138252 61.172515 0.0 1.0 910.0 1
11 1 93.330179 25.245299 0.0 1.0 910.0 1
12 1 67.50307 54.791741 0.0 1.0 910.0 1
13 1 49.530693 26.10105 0.0 1.0 910.0 1
14 1 74.931639 39.199255 0.0 1.0 910.0 1
15 1 68.68387 26.831506 0.0 1.0 910.0 1
16 1 6.450737 42.221113 0.0 1.0 910.0 1
17 1 96.820535 63.07932 0.0 1.0 910.0 1
18 1 2.846684 94.403219 0.0 1.0 910.0 1
19 1 39.884324 40.326219 0.0 1.0 910.0 1
20 1 45.987429 71.96137 0.0 1.0 910.0 1
21 1 2.21959 29.539465 0.0 1.0 910.0 1
22 1 14.855459 63.673305 0.0 1.0 910.0 1
23 1 3.332285 49.386188 0.0 1.0 910.0 1
24 1 68.193168 1.010613 0.0 1.0 910.0 1
25 1 78.644436 13.579312 0.0 1.0 910.0 1
26 1 13.803166 79.961731 0.0 1.0 910.0 1
27 1 44.60079 95.191101 0.0 1.0 910.0 1
28 1 38.447069 44.674671 0.0 1.0 910.0 1
29 1 51.993989 34.176053 0.0 1.0 910.0 1
30 1 71.870848 93.620436 0.0 1.0 910.0 1
31 1 9.591659 68.776289 0.0 1.0 910.0 1
32 1 34.12072 9.870211 0.0 1.0 910.0 1
33 1 58.90164 27.527297 0.0 1.0 910.0 1
34 1 22.945029 39.292882 0.0 1.0 910.0 1
35 1 67.298709 30.937077 0.0 1.0 910.0 1
36 1 31.090816 90.076404 0.0 1.0 910.0 1
37 1 52.168881 27.478347 0.0 1.0 910.0 1
38 1 99.00814 84.535248 0.0 1.0 910.0 1
39 1 25.656756 63.502298 0.0 1.0 910.0 1
40 1 25.334239 20.551285 0.0 1.0 910.0 1
41 1 15.165731 44.190897 0.0 1.0 910.0 1
42 1 22.177363 85.184213 0.0 1.0 910.0 1
43 1 42.820111 37.983883 0.0 1.0 910.0 1
44 1 90.493178 39.23221 0.0 1.0 910.0 1
45 1 9.674924 85.310016 0.0 1.0 910.0 1
46 1 23.544056 88.129009 0.0 1.0 910.0 1
47 1 80.682896 93.430503 0.0 1.0 910.0 1
48 1 42.185165 2.495806 0.0 1.0 910.0 1
49 1 76.17624 16.870512 0.0 1.0 910.0 1
50 1 78.898247 98.915531 0.0 1.0 910.0 1
51 1 17.917206 26.203749 0.0 1.0 910.0 1
52 1 71.86345 10.687468 0.0 1.0 910.0 1
53 1 27.317983 97.763102 0.0 1.0 910.0 1
54 1 44.847395 66.416986 0.0 1.0 910.0 1
55 1 18.298213 78.229181 0.0 1.0 910.0 1
56 1 70.811253 77.379152 0.0 1.0 910.0 1
57 1 34.596844 19.265684 0.0 1.0 910.0 1
58 1 13.258217 28.190907 0.0 1.0 910.0 1
59 1 78.014862 69.027995 0.0 1.0 910.0 1
60 1 86.360259 6.438689 0.0 1.0 910.0 1
61 1 41.768614 15.122136 0.0 1.0 910.0 1
62 1 99.001165 57.910595 0.0 1.0 910.0 1
63 1 98.442014 37.69147 0.0 1.0 910.0 1
64 1 29.660342 22.452434 0.0 1.0 910.0 1
65 1 10.065331 44.867688 0.0 1.0 910.0 1
66 1 99.128224 23.240409 0.0 1.0 910.0 1
67 1 87.556052 71.699364 0.0 1.0 910.0 1
68 1 12.309488 38.333518 0.0 1.0 910.0 1
69 1 56.161275 8.21572 0.0 1.0 910.0 1
70 1 31.610138 5.14825 0.0 1.0 910.0 1
71 1 53.690511 59.902619 0.0 1.0 910.0 1
72 1 32.615965 38.675325 0.0 1.0 910.0 1
73 1 54.726385 61.622872 0.0 1.0 910.0 1
74 1 21.526018 95.067724 0.0 1.0 910.0 1
75 1 41.187172 94.445307 0.0 1.0 910.0 1
76 1 93.761038 17.334157 0.0 1.0 910.0 1
77 1 91.276661 92.379561 0.0 1.0 910.0 1
78 1 74.453646 91.706064 0.0 1.0 910.0 1
79 1 2.73259 92.15508 0.0 1.0 910.0 1
80 1 96.786617 18.469008 0.0 1.0 910.0 1
81 1 6.949453 47.38347 0.0 1.0 910.0 1
82 1 75.103139 21.978974 0.0 1.0 910.0 1
83 1 97.654311 19.143957 0.0 1.0 910.0 1
84 1 89.750895 64.261792 0.0 1.0 910.0 1
85 1 49.619132 58.343025 0.0 1.0 910.0 1
86 1 78.314977 22.312591 0.0 1.0 910.0 1
87 1 64.351228 23.09482 0.0 1.0 910.0 1
88 1 68.945973 94.957687 0.0 1.0 910.0 1
89 1 34.270757 49.188654 0.0 1.0 910.0 1
90 1 17.411571 17.569763 0.0 1.0 910.0 1
91 1 51.404353 61.688346 0.0 1.0 910.0 1
92 1 28.799482 74.193164 0.0 1.0 910.0 1
93 1 35.775625 19.163279 0.0 1.0 910.0 1
94 1 60.119547 10.740906 0.0 1.0 910.0 1
95 1 89.055057 17.8885 0.0 1.0 910.0 1
96 1 25.916681 58.642708 0.0 1.0 910.0 1
97 1 95.379321 54.421392 0.0 1.0 910.0 1
98 1 18.749726 0.500023 0.0 1.0 910.0 1
99 1 50.635116 16.834871 0.0 1.0 910.0 1
100 1 20.275487 98.254817 0.0 1.0 910.0 1
101 1 8.023267 7.92215 0.0 1.0 910.0 1
102 1 27.266167 81.448136 0.0 1.0 910.0 1
103 1 32.79926 15.154284 0.0 1.0 910.0 1
104 1 89.420443 92.41482 0.0 1.0 910.0 1
105 1 15.795713 33.983614 0.0 1.0 910.0 1
106 1 29.379582 33.696349 0.0 1.0 910.0 1
107 1 50.205288 38.477037 0.0 1.0 910.0 1
108 1 26.86153 39.28201 0.0 1.0 910.0 1
109 1 82.886918 2.497963 0.0 1.0 910.0 1
110 1 14.582213 52.313248 0.0 1.0 910.0 1
111 1 85.354881 68.684653 0.0 1.0 910.0 1
112 1 38.614133 93.612006 0.0 1.0 910.0 1
113 1 18.210088 85.645222 0.0 1.0 910.0 1
114 1 98.557741 76.472604 0.0 1.0 910.0 1
115 1 39.13968 55.821703 0.0 1.0 910.0 1
116 1 54.7787 90.400357 0.0 1.0 910.0 1
117 1 74.022517 57.726026 0.0 1.0 910.0 1
118 1 15.551274 2.120544 0.0 1.0 910.0 1
119 1 39.159984 47.085674 0.0 1.0 910.0 1
120 1 13.442024 93.331242 0.0 1.0 910.0 1
121 1 7.319916 59.90784 0.0 1.0 910.0 1
122 1 76.885925 33.393343 0.0 1.0 910.0 1
123 1 47.999426 36.171086 0.0 1.0 910.0 1
124 1 77.828284 20.166298 0.0 1.0 910.0 1
125 1 67.401548 60.963638 0.0 1.0 910.0 1
126 1 80.624662 18.537771 0.0 1.0 910.0 1
127 1 97.501561 34.271348 0.0 1.0 910.0 1
128 1 64.919796 82.210797 0.0 1.0 910.0 1
129 1 48.454827 30.598324 0.0 1.0 910.0 1
130 1 17.176646 39.909454 0.0 1.0 910.0 1
131 1 58.737345 80.979148 0.0 1.0 910.0 1
132 1 28.607566 26.918966 0.0 1.0 910.0 1
133 1 24.822389 85.396007 0.0 1.0 910.0 1
134 1 9.392489 45.738294 0.0 1.0 910.0 1
135 1 63.215229 17.955899 0.0 1.0 910.0 1
136 1 50.09046 69.930571 0.0 1.0 910.0 1
137 1 49.014392 87.136307 0.0 1.0 910.0 1
138 1 79.503055 10.797878 0.0 1.0 910.0 1
139 1 78.43007 95.422238 0.0 1.0 910.0 1
140 1 28.396692 50.375337 0.0 1.0 910.0 1
141 1 15.380347 38.240693 0.0 1.0 910.0 1
142 1 80.935942 20.362556 0.0 1.0 910.0 1
143 1 17.561961 67.897013 0.0 1.0 910.0 1
144 1 74.326379 90.417542 0.0 1.0 910.0 1
145 1 72.22018 82.728185 0.0 1.0 910.0 1
146 1 92.162715 46.740008 0.0 1.0 910.0 1
147 1 64.856356 45.024323 0.0 1.0 910.0 1
148 1 72.894126 73.000841 0.0 1.0 910.0 1
149 1 28.273297 3.748945 0.0 1.0 910.0 1
150 1 63.376094 15.638679 0.0 1.0 910.0 1
151 1 4.700155 99.163287 0.0 1.0 910.0 1
152 1 37.770383 69.477626 0.0 1.0 910.0 1
153 1 62.366599 23.264076 0.0 1.0 910.0 1
154 1 33.398032 42.195547 0.0 1.0 910.0 1
155 1 55.548103 77.478359 0.0 1.0 910.0 1
156 1 19.003227 38.763299 0.0 1.0 910.0 1
157 1 78.067086 21.237836 0.0 1.0 910.0 1
158 1 80.043735 85.551041 0.0 1.0 910.0 1
159 1 82.827802 59.438532 0.0 1.0 910.0 1
160 1 13.029035 32.532353 0.0 1.0 910.0 1
161 1 40.310848 30.631339 0.0 1.0 910.0 1
162 1 14.246464 13.322994 0.0 1.0 910.0 1
163 1 67.851535 5.271435 0.0 1.0 910.0 1
164 1 58.825816 7.130997 0.0 1.0 910.0 1
165 1 92.39873 67.913183 0.0 1.0 910.0 1
166 1 6.848585 78.443106 0.0 1.0 910.0 1
167 1 48.778766 91.067405 0.0 1.0 910.0 1
168 1 96.737298 13.653191 0.0 1.0 910.0 1
169 1 7.391945 74.136019 0.0 1.0 910.0 1
170 1 81.290902 82.619622 0.0 1.0 910.0 1
171 1 25.987126 67.074833 0.0 1.0 910.0 1
172 1 46.736764 62.45214 0.0 1.0 910.0 1
173 1 23.89852 53.190393 0.0 1.0 910.0 1
174 1 39.459712 19.930658 0.0 1.0 910.0 1
175 1 53.46427 33.244683 0.0 1.0 910.0 1
176 1 76.410602 45.411404 0.0 1.0 910.0 1
177 1 17.497662 38.862113 0.0 1.0 910.0 1
178 1 68.858948 50.437354 0.0 1.0 910.0 1
179 1 48.86743 37.422142 0.0 1.0 910.0 1
180 1 46.943762 40.053958 0.0 1.0 910.0 1
181 1 34.618792 45.881618 0.0 1.0 910.0 1
182 1 36.853362 22.770101 0.0 1.0 910.0 1
183 1 44.195672 69.932167 0.0 1.0 910.0 1
184 1 62.017008 43.506233 0.0 1.0 910.0 1
185 1 27.176865 15.375951 0.0 1.0 910.0 1
186 1 20.135655 65.475641 0.0 1.0 910.0 1
187 1 89.252249 8.798579 0.0 1.0 910.0 1
188 1 1.054199 39.077333 0.0 1.0 910.0 1
189 1 71.945169 65.612029 0.0 1.0 910.0 1
190 1 36.231407 95.135788 0.0 1.0 910.0 1
191 1 86.49653 67.42358 0.0 1.0 910.0 1
192 1 10.235033 72.325523 0.0 1.0 910.0 1
193 1 16.616221 27.793876 0.0 1.0 910.0 1
194 1 46.235175 74.595289 0.0 1.0 910.0 1
195 1 52.533487 58.455688 0.0 1.0 910.0 1
196 1 18.911361 10.842798 0.0 1.0 910.0 1
197 1 66.800108 70.226339 0.0 1.0 910.0 1
198 1 4.303642 33.505564 0.0 1.0 910.0 1
199 1 58.674416 78.791171 0.0 1.0 910.0 1
200 1 41.044952 79.850158 0.0 1.0 910.0 1
201 1 90.246576 80.077434 0.0 1.0 910.0 1
202 1 32.956271 56.06475 0.0 1.0 910.0 1
203 1 80.760972 39.339463 0.0 1.0 910.0 1
204 1 44.542332 34.594916 0.0 1.0 910.0 1
205 1 89.988518 70.584868 0.0 1.0 910.0 1
206 1 55.623676 59.104601 0.0 1.0 910.0 1
207 1 94.232271 7.975521 0.0 1.0 910.0 1
208 1 93.29847 80.877825 0.0 1.0 910.0 1
209 1 43.104266 85.427381 0.0 1.0 910.0 1
210 1 7.489664 42.57662 0.0 1.0 910.0 1
211 1 96.137813 25.081313 0.0 1.0 910.0 1
212 1 9.347156 70.084338 0.0 1.0 910.0 1
213 1 52.767347 7.343884 0.0 1.0 910.0 1
214 1 73.357819 84.052944 0.0 1.0 910.0 1
215 1 45.835422 60.500734 0.0 1.0 910.0 1
216 1 50.971097 10.03143 0.0 1.0 910.0 1
217 1 18.025797 87.245878 0.0 1.0 910.0 1
218 1 51.504752 9.064295 0.0 1.0 910.0 1
219 1 85.346574 44.310922 0.0 1.0 910.0 1
220 1 81.628741 72.287708 0.0 1.0 910.0 1
221 1 29.988105 60.759969 0.0 1.0 910.0 1
222 1 44.444464 2.863839 0.0 1.0 910.0 1
223 1 97.781263 14.157876 0.0 1.0 910.0 1
224 1 62.075118 26.097674 0.0 1.0 910.0 1
225 1 60.788625 82.145492 0.0 1.0 910.0 1
226 1 38.654108 12.998958 0.0 1.0 910.0 1
227 1 2.812717 80.992626 0.0 1.0 910.0 1
228 1 7.106729 66.253019 0.0 1.0 910.0 1
229 1 5.853107 87.178523 0.0 1.0 910.0 1
230 1 71.336043 92.537635 0.0 1.0 910.0 1
231 1 92.966623 56.026465 0.0 1.0 910.0 1
232 1 63.900012 11.221255 0.0 1.0 910.0 1
233 1 66.038495 56.348755 0.0 1.0 910.0 1
234 1 56.78057 20.509756 0.0 1.0 910.0 1
235 1 52.046511 3.995875 0.0 1.0 910.0 1
236 1 89.448626 38.371918 0.0 1.0 910.0 1
237 1 8.384323 35.920562 0.0 1.0 910.0 1
238 1 69.930371 72.369349 0.0 1.0 910.0 1
239 1 73.888484 69.520062 0.0 1.0 910.0 1
240 1 87.336334 35.893846 0.0 1.0 910.0 1
241 1 85.440756 60.466924 0.0 1.0 910.0 1
242 1 9.337962 20.844486 0.0 1.0 910.0 1
243 1 80.265811 28.506147 0.0 1.0 910.0 1
244 1 40.084846 86.546263 0.0 1.0 910.0 1
245 1 56.934067 42.74017 0.0 1.0 910.0 1
246 1 80.467961 11.317035 0.0 1.0 910.0 1
247 1 10.942513 51.311681 0.0 1.0 910.0 1
248 1 56.821507 86.352119 0.0 1.0 910.0 1
249 1 71.175694 19.709798 0.0 1.0 910.0 1
250 1 79.311606 29.055906 0.0 1.0 910.0 1
251 1 5.169829 56.508911 0.0 1.0 910.0 1
252 1 38.268743 92.487008 0.0 1.0 910.0 1
253 1 86.599577 30.267866 0.0 1.0 910.0 1
254 1 7.623865 12.022836 0.0 1.0 910.0 1
255 1 49.323589 11.214377 0.0 1.0 910.0 1
256 1 47.685668 91.304594 0.0 1.0 910.0 1
257 1 42.433403 36.958792 0.0 1.0 910.0 1
258 1 34.777685 54.065276 0.0 1.0 910.0 1
259 1 25.980087 84.298368 0.0 1.0 910.0 1
260 1 70.532873 54.311361 0.0 1.0 910.0 1
261 1 81.433744 91.070393 0.0 1.0 910.0 1
262 1 54.603478 6.804123 0.0 1.0 910.0 1
263 1 39.484414 77.939342 0.0 1.0 910.0 1
264 1 45.362733 84.834991 0.0 1.0 910.0 1
265 1 37.790865 39.642219 0.0 1.0 910.0 1
266 1 26.969257 88.59328 0.0 1.0 910.0 1
267 1 54.07204 84.260294 0.0 1.0 910.0 1
268 1 9.625193 54.092523 0.0 1.0 910.0 1
269 1 41.701681 87.0597 0.0 1.0 910.0 1
270 1 14.451223 2.123691 0.0 1.0 910.0 1
271 1 72.320308 8.641985 0.0 1.0 910.0 1
272 1 77.684243 65.796879 0.0 1.0 910.0 1
273 1 59.085713 90.799217 0.0 1.0 910.0 1
274 1 30.541635 41.844927 0.0 1.0 910.0 1
275 1 7.918046 57.496522 0.0 1.0 910.0 1
276 1 19.095083 13.739102 0.0 1.0 910.0 1
277 1 21.764145 56.790759 0.0 1.0 910.0 1
278 1 46.560149 5.748207 0.0 1.0 910.0 1
279 1 22.926075 82.282495 0.0 1.0 910.0 1
280 1 27.335602 89.683871 0.0 1.0 910.0 1
281 1 98.724144 66.912968 0.0 1.0 910.0 1
282 1 28.860442 17.427154 0.0 1.0 910.0 1
283 1 95.182194 12.043103 0.0 1.0 910.0 1
284 1 42.348756 50.106233 0.0 1.0 910.0 1
285 1 64.82293 98.850211 0.0 1.0 910.0 1
286 1 24.519234 3.421316 0.0 1.0 910.0 1
287 1 43.029005 17.020469 0.0 1.0 910.0 1
288 1 41.206876 58.888867 0.0 1.0 910.0 1
289 1 90.350866 25.9695 0.0 1.0 910.0 1
290 1 83.645653 62.482605 0.0 1.0 910.0 1
291 1 15.198972 24.787363 0.0 1.0 910.0 1
292 1 38.129341 80.586678 0.0 1.0 910.0 1
293 1 98.540548 12.155295 0.0 1.0 910.0 1
294 1 35.664452 60.960509 0.0 1.0 910.0 1
295 1 15.188433 32.977547 0.0 1.0 910.0 1
296 1 45.443587 54.156978 0.0 1.0 910.0 1
297 1 49.12308 88.990519 0.0 1.0 910.0 1
298 1 59.53546 60.78906 0.0 1.0 910.0 1
299 1 92.595798 8.722216 0.0 1.0 910.0 1
300 1 12.366838 89.353457 0.0 1.0 910.0 1
301 1 42.677966 35.890102 0.0 1.0 910.0 1
302 1 17.026789 14.045396 0.0 1.0 910.0 1
303 1 9.703593 10.463164 0.0 1.0 910.0 1
304 1 22.326702 96.937463 0.0 1.0 910.0 1
305 1 39.356713 64.442514 0.0 1.0 910.0 1
306 1 62.379172 5.773564 0.0 1.0 910.0 1
307 1 23.980152 30.256735 0.0 1.0 910.0 1
308 1 69.141142 4.708541 0.0 1.0 910.0 1
309 1 55.681919 97.928236 0.0 1.0 910.0 1
310 1 16.08019 56.441317 0.0 1.0 910.0 1
311 1 33.213335 52.738493 0.0 1.0 910.0 1
312 1 82.28254 10.398955 0.0 1.0 910.0 1
313 1 62.946885 27.805454 0.0 1.0 910.0 1
314 1 74.313979 48.674721 0.0 1.0 910.0 1
315 1 46.815139 60.000102 0.0 1.0 910.0 1
316 1 53.690387 83.230022 0.0 1.0 910.0 1
317 1 9.294572 78.018067 0.0 1.0 910.0 1
318 1 40.087367 56.367067 0.0 1.0 910.0 1
319 1 5.831184 7.663945 0.0 1.0 910.0 1
320 1 32.07779 57.940601 0.0 1.0 910.0 1
321 1 23.317378 72.421948 0.0 1.0 910.0 1
322 1 1.346684 34.362624 0.0 1.0 910.0 1
323 1 6.263198 56.05031 0.0 1.0 910.0 1
324 1 2.230352 71.632885 0.0 1.0 910.0 1
325 1 30.014211 89.703881 0.0 1.0 910.0 1
326 1 26.994089 27.217364 0.0 1.0 910.0 1
327 1 30.185843 28.13278 0.0 1.0 910.0 1
328 1 30.017944 8.974085 0.0 1.0 910.0 1
329 1 10.591016 61.825233 0.0 1.0 910.0 1
330 1 98.504095 53.783633 0.0 1.0 910.0 1
331 1 39.633575 81.384813 0.0 1.0 910.0 1
332 1 80.443647 84.155699 0.0 1.0 910.0 1
333 1 46.80452 95.96994 0.0 1.0 910.0 1
334 1 49.721422 99.499902 0.0 1.0 910.0 1
335 1 52.510567 52.450326 0.0 1.0 910.0 1
336 1 11.80154 18.539388 0.0 1.0 910.0 1
337 1 90.494533 6.880686 0.0 1.0 910.0 1
338 1 94.620801 86.345187 0.0 1.0 910.0 1
339 1 88.689477 88.724111 0.0 1.0 910.0 1
340 1 72.185204 79.684102 0.0 1.0 910.0 1
341 1 88.135864 58.451232 0.0 1.0 910.0 1
342 1 69.711798 27.222736 0.0 1.0 910.0 1
343 1 7.018615 19.49905 0.0 1.0 910.0 1
344 1 25.976949 80.377119 0.0 1.0 910.0 1
345 1 5.114663 11.517884 0.0 1.0 910.0 1
346 1 28.051039 38.346068 0.0 1.0 910.0 1
347 1 2.088576 73.959538 0.0 1.0 910.0 1
348 1 48.02103 50.89091 0.0 1.0 910.0 1
349 1 73.504019 91.146089 0.0 1.0 910.0 1
350 1 50.254143 42.444928 0.0 1.0 910.0 1
351 1 97.760312 31.280416 0.0 1.0 910.0 1
352 1 32.618087 94.111887 0.0 1.0 910.0 1
353 1 81.611846 63.167974 0.0 1.0 910.0 1
354 1 19.233897 56.864511 0.0 1.0 910.0 1
355 1 42.621234 39.071846 0.0 1.0 910.0 1
356 1 67.436742 59.676847 0.0 1.0 910.0 1
357 1 95.965521 56.748353 0.0 1.0 910.0 1
358 1 0.589651 44.876953 0.0 1.0 910.0 1
359 1 81.040456 87.865751 0.0 1.0 910.0 1
360 1 38.708123 82.744189 0.0 1.0 910.0 1
361 1 99.481592 12.770283 0.0 1.0 910.0 1
362 1 32.646276 67.74641 0.0 1.0 910.0 1
363 1 81.060502 61.478689 0.0 1.0 910.0 1
364 1 85.00717 81.575441 0.0 1.0 910.0 1
365 1 49.6549 47.537165 0.0 1.0 910.0 1
366 1 98.104515 23.64458 0.0 1.0 910.0 1
367 1 67.641891 3.129345 0.0 1.0 910.0 1
368 1 16.166164 42.666651 0.0 1.0 910.0 1
369 1 66.990113 79.408094 0.0 1.0 910.0 1
370 1 12.472614 69.532262 0.0 1.0 910.0 1
371 1 92.685561 75.904298 0.0 1.0 910.0 1
372 1 10.213404 48.546879 0.0 1.0 910.0 1
373 1 22.714649 3.157842 0.0 1.0 910.0 1
374 1 67.256926 36.195176 0.0 1.0 910.0 1
375 1 63.09178 91.116332 0.0 1.0 910.0 1
376 1 54.616014 96.795525 0.0 1.0 910.0 1
377 1 40.737423 36.316774 0.0 1.0 910.0 1
378 1 40.868426 98.242095 0.0 1.0 910.0 1
379 1 43.081369 63.633436 0.0 1.0 910.0 1
380 1 39.683925 52.811798 0.0 1.0 910.0 1
381 1 18.271053 24.102764 0.0 1.0 910.0 1
382 1 52.294793 21.865878 0.0 1.0 910.0 1
383 1 25.985766 38.57826 0.0 1.0 910.0 1
384 1 60.635172 89.378806 0.0 1.0 910.0 1
385 1 54.54769 33.072771 0.0 1.0 910.0 1
386 1 68.80831 71.416266 0.0 1.0 910.0 1
387 1 69.163125 18.215124 0.0 1.0 910.0 1
388 1 52.030646 10.274979 0.0 1.0 910.0 1
389 1 88.686537 36.34018 0.0 1.0 910.0 1
390 1 32.290543 20.933909 0.0 1.0 910.0 1
391 1 28.563169 93.597397 0.0 1.0 910.0 1
392 1 79.537803 11.884577 0.0 1.0 910.0 1
393 1 73.650883 46.589796 0.0 1.0 910.0 1
394 1 6.961154 39.429693 0.0 1.0 910.0 1
395 1 54.623831 39.194044 0.0 1.0 910.0 1
396 1 3.462602 20.15467 0.0 1.0 910.0 1
397 1 75.171892 29.95045 0.0 1.0 910.0 1
398 1 33.108485 17.039701 0.0 1.0 910.0 1
399 1 84.842888 36.028415 0.0 1.0 910.0 1
400 1 14.946205 12.42282 0.0 1.0 910.0 1
401 1 75.038867 1.628529 0.0 1.0 910.0 1
402 1 87.06693 18.411645 0.0 1.0 910.0 1
403 1 9.969148 50.724788 0.0 1.0 910.0 1
404 1 92.715518 35.172593 0.0 1.0 910.0 1
405 1 13.296978 94.840901 0.0 1.0 910.0 1
406 1 49.047544 81.253006 0.0 1.0 910.0 1
407 1 64.997818 84.938621 0.0 1.0 910.0 1
408 1 16.281054 67.406964 0.0 1.0 910.0 1
409 1 61.920815 4.774023 0.0 1.0 910.0 1
410 1 20.171099 47.033958 0.0 1.0 910.0 1
411 1 98.412945 38.933423 0.0 1.0 910.0 1
412 1 71.350408 85.319038 0.0 1.0 910.0 1
413 1 56.120681 55.954293 0.0 1.0 910.0 1
414 1 35.42618 17.225483 0.0 1.0 910.0 1
415 1 27.81456 76.597234 0.0 1.0 910.0 1
416 1 62.145152 75.091258 0.0 1.0 910.0 1
417 1 62.723793 87.764956 0.0 1.0 910.0 1
418 1 48.616521 74.584778 0.0 1.0 910.0 1
419 1 7.508483 37.341574 0.0 1.0 910.0 1
420 1 90.08073 51.105254 0.0 1.0 910.0 1
421 1 78.108094 32.427696 0.0 1.0 910.0 1
422 1 71.78225 31.376454 0.0 1.0 910.0 1
423 1 12.153979 41.550323 0.0 1.0 910.0 1
424 1 30.929307 56.195084 0.0 1.0 910.0 1
425 1 56.633976 33.174711 0.0 1.0 910.0 1
426 1 51.561172 59.906894 0.0 1.0 910.0 1
427 1 63.18084 45.479052 0.0 1.0 910.0 1
428 1 69.166638 0.499292 0.0 1.0 910.0 1
429 1 70.174883 8.207278 0.0 1.0 910.0 1
430 1 94.741988 91.716204 0.0 1.0 910.0 1
431 1 56.465075 51.786154 0.0 1.0 910.0 1
432 1 86.43097 62.986728 0.0 1.0 910.0 1
433 1 80.775961 26.173853 0.0 1.0 910.0 1
434 1 52.71085 82.353278 0.0 1.0 910.0 1
435 1 7.166847 79.942189 0.0 1.0 910.0 1
436 1 44.637312 80.629159 0.0 1.0 910.0 1
437 1 57.982732 4.093901 0.0 1.0 910.0 1
438 1 2.41646 63.488048 0.0 1.0 910.0 1
439 1 1.151571 47.133211 0.0 1.0 910.0 1
440 1 5.67216 36.884887 0.0 1.0 910.0 1
441 1 91.116635 79.187306 0.0 1.0 910.0 1
442 1 58.989516 35.711106 0.0 1.0 910.0 1
443 1 32.872331 84.041413 0.0 1.0 910.0 1
444 1 33.175359 29.576524 0.0 1.0 910.0 1
445 1 20.674876 49.09293 0.0 1.0 910.0 1
446 1 87.739381 13.273173 0.0 1.0 910.0 1
447 1 14.746697 30.284042 0.0 1.0 910.0 1
448 1 56.73468 50.720205 0.0 1.0 910.0 1
449 1 55.025536 55.967001 0.0 1.0 910.0 1
450 1 94.874211 71.029106 0.0 1.0 910.0 1
451 1 41.825032 68.748739 0.0 1.0 910.0 1
452 1 92.290712 29.559767 0.0 1.0 910.0 1
453 1 63.495526 1.066512 0.0 1.0 910.0 1
454 1 43.915406 75.727974 0.0 1.0 910.0 1
455 1 40.861866 3.195573 0.0 1.0 910.0 1
456 1 20.280582 42.360016 0.0 1.0 910.0 1
457 1 56.859415 12.898619 0.0 1.0 910.0 1
458 1 69.305941 84.778833 0.0 1.0 910.0 1
459 1 57.812543 7.459217 0.0 1.0 910.0 1
460 1 26.025574 96.290916 0.0 1.0 910.0 1
461 1 95.555893 44.815808 0.0 1.0 910.0 1
462 1 3.144412 48.302623 0.0 1.0 910.0 1
463 1 54.026718 7.748608 0.0 1.0 910.0 1
464 1 25.783477 47.542419 0.0 1.0 910.0 1
465 1 96.221663 23.984437 0.0 1.0 910.0 1
466 1 50.134573 81.415837 0.0 1.0 910.0 1
467 1 31.020763 7.818379 0.0 1.0 910.0 1
468 1 93.142409 94.946955 0.0 1.0 910.0 1
469 1 31.074033 48.677391 0.0 1.0 910.0 1
470 1 48.153465 86.451872 0.0 1.0 910.0 1
471 1 54.289921 62.797884 0.0 1.0 910.0 1
472 1 49.033748 52.774654 0.0 1.0 910.0 1
473 1 1.783582 4.762501 0.0 1.0 910.0 1
474 1 79.839999 41.094054 0.0 1.0 910.0 1
475 1 35.758164 53.573758 0.0 1.0 910.0 1
476 1 47.332942 57.982617 0.0 1.0 910.0 1
477 1 62.040375 10.169471 0.0 1.0 910.0 1
478 1 65.858922 15.401085 0.0 1.0 910.0 1
479 1 94.43168 37.684921 0.0 1.0 910.0 1
480 1 66.434346 14.463411 0.0 1.0 910.0 1
481 1 38.49837 98.396426 0.0 1.0 910.0 1
482 1 51.133073 12.409404 0.0 1.0 910.0 1
483 1 39.785346 5.148012 0.0 1.0 910.0 1
484 1 87.202382 38.464542 0.0 1.0 910.0 1
485 1 9.683621 14.212753 0.0 1.0 910.0 1
486 1 84.482392 41.093034 0.0 1.0 910.0 1
487 1 69.048603 61.705547 0.0 1.0 910.0 1
488 1 83.36194 74.40345 0.0 1.0 910.0 1
489 1 83.125376 73.331512 0.0 1.0 910.0 1
490 1 76.220356 54.280719 0.0 1.0 910.0 1
491 1 19.355807 76.833819 0.0 1.0 910.0 1
492 1 93.598556 41.409461 0.0 1.0 910.0 1
493 1 69.119867 98.031454 0.0 1.0 910.0 1
494 1 44.203437 85.426159 0.0 1.0 910.0 1
495 1 18.368784 70.156404 0.0 1.0 910.0 1
496 1 94.544577 87.438243 0.0 1.0 910.0 1
497 1 61.181073 10.995564 0.0 1.0 910.0 1
498 1 31.908165 56.697464 0.0 1.0 910.0 1
499 1 29.815249 76.621605 0.0 1.0 910.0 1
500 1 73.532047 89.658039 0.0 1.0 910.0 1
501 1 52.849427 45.468674 0.0 1.0 910.0 1
502 1 24.993731 75.664302 0.0 1.0 910.0 1
503 1 42.344746 87.952233 0.0 1.0 910.0 1
504 1 20.188773 38.814144 0.0 1.0 910.0 1
505 1 65.892282 32.180722 0.0 1.0 910.0 1
506 1 26.974735 28.317075 0.0 1.0 910.0 1
507 1 52.641505 57.130334 0.0 1.0 910.0 1
508 1 37.642859 29.864918 0.0 1.0 910.0 1
509 1 6.116082 25.960084 0.0 1.0 910.0 1
510 1 22.056618 74.224204 0.0 1.0 910.0 1
511 1 76.859944 8.957301 0.0 1.0 910.0 1
512 1 66.246948 62.59503 0.0 1.0 910.0 1
513 1 52.724165 84.585557 0.0 1.0 910.0 1
514 1 59.759655 1.724838 0.0 1.0 910.0 1
515 1 27.75715 60.697639 0.0 1.0 910.0 1
516 1 4.099526 86.17405 0.0 1.0 910.0 1
517 1 94.034284 31.366 0.0 1.0 910.0 1
518 1 8.89874 86.90501 0.0 1.0 910.0 1
519 1 62.244182 17.437752 0.0 1.0 910.0 1
520 1 92.324102 5.515283 0.0 1.0 910.0 1
521 1 4.33155 59.439413 0.0 1.0 910.0 1
522 1 16.938293 81.700359 0.0 1.0 910.0 1
523 1 53.240092 95.019128 0.0 1.0 910.0 1
524 1 67.190511 78.012535 0.0 1.0 910.0 1
525 1 55.893031 35.623248 0.0 1.0 910.0 1
526 1 84.925305 64.89083 0.0 1.0 910.0 1
527 1 6.49481 90.36395 0.0 1.0 910.0 1
528 1 18.1509 91.858006 0.0 1.0 910.0 1
529 1 60.882511 28.242769 0.0 1.0 910.0 1
530 1 63.775488 98.375159 0.0 1.0 910.0 1
531 1 11.602018 48.116015 0.0 1.0 910.0 1
532 1 20.968164 62.884065 0.0 1.0 910.0 1
533 1 82.915503 20.741742 0.0 1.0 910.0 1
534 1 80.522999 70.505301 0.0 1.0 910.0 1
535 1 75.457049 72.652128 0.0 1.0 910.0 1
536 1 8.692444 46.585764 0.0 1.0 910.0 1
537 1 91.107682 81.885156 0.0 1.0 910.0 1
538 1 14.873679 81.68185 0.0 1.0 910.0 1
539 1 88.732716 77.051433 0.0 1.0 910.0 1
540 1 57.197841 66.432144 0.0 1.0 910.0 1
541 1 47.605411 19.071327 0.0 1.0 910.0 1
542 1 3.093447 51.772164 0.0 1.0 910.0 1
543 1 52.531287 18.138252 0.0 1.0 910.0 1
544 1 58.875386 5.033095 0.0 1.0 910.0 1
545 1 50.540873 51.386736 0.0 1.0 910.0 1
546 1 31.024103 81.776228 0.0 1.0 910.0 1
547 1 32.28264 90.057762 0.0 1.0 910.0 1
548 1 29.746114 51.577136 0.0 1.0 910.0 1
549 1 78.602939 49.174369 0.0 1.0 910.0 1
550 1 69.685006 7.222158 0.0 1.0 910.0 1
551 1 74.711844 15.233936 0.0 1.0 910.0 1
552 1 10.688395 54.37094 0.0 1.0 910.0 1
553 1 92.08317 1.558525 0.0 1.0 910.0 1
554 1 70.697026 99.500781 0.0 1.0 910.0 1
555 1 77.231465 63.40634 0.0 1.0 910.0 1
556 1 70.811087 89.930271 0.0 1.0 910.0 1
557 1 13.214245 35.32049 0.0 1.0 910.0 1
558 1 30.46865 24.631195 0.0 1.0 910.0 1
559 1 69.507212 97.003319 0.0 1.0 910.0 1
560 1 13.958854 77.553564 0.0 1.0 910.0 1
561 1 34.919224 70.593261 0.0 1.0 910.0 1
562 1 53.037123 36.092815 0.0 1.0 910.0 1
563 1 36.039469 92.811059 0.0 1.0 910.0 1
564 1 31.513235 35.0721 0.0 1.0 910.0 1
565 1 98.459127 46.919298 0.0 1.0 910.0 1
566 1 35.827088 58.066339 0.0 1.0 910.0 1
567 1 22.772397 83.370205 0.0 1.0 910.0 1
568 1 3.888097 47.416793 0.0 1.0 910.0 1
569 1 52.622481 74.916098 0.0 1.0 910.0 1
570 1 86.5173 93.487524 0.0 1.0 910.0 1
571 1 6.859458 94.345956 0.0 1.0 910.0 1
572 1 12.506745 14.395541 0.0 1.0 910.0 1
573 1 60.182494 45.331849 0.0 1.0 910.0 1
574 1 61.010826 99.180027 0.0 1.0 910.0 1
575 1 76.760933 73.575134 0.0 1.0 910.0 1
576 1 47.927492 18.019049 0.0 1.0 910.0 1
577 1 84.392321 37.031215 0.0 1.0 910.0 1
578 1 41.479753 9.417686 0.0 1.0 910.0 1
579 1 78.930925 76.605688 0.0 1.0 910.0 1
580 1 41.345173 67.754964 0.0 1.0 910.0 1
581 1 81.849873 39.494942 0.0 1.0 910.0 1
582 1 97.829946 89.238747 0.0 1.0 910.0 1
583 1 37.894455 3.064519 0.0 1.0 910.0 1
584 1 81.431894 46.929492 0.0 1.0 910.0 1
585 1 20.78735 58.540768 0.0 1.0 910.0 1
586 1 76.017006 81.599199 0.0 1.0 910.0 1
587 1 11.481957 21.725127 0.0 1.0 910.0 1
588 1 44.055213 52.003716 0.0 1.0 910.0 1
589 1 30.728235 92.766117 0.0 1.0 910.0 1
590 1 1.967198 35.268638 0.0 1.0 910.0 1
591 1 46.806907 1.477555 0.0 1.0 910.0 1
592 1 53.579756 10.656605 0.0 1.0 910.0 1
593 1 6.495735 16.056413 0.0 1.0 910.0 1
594 1 5.288749 30.01344 0.0 1.0 910.0 1
595 1 6.185637 81.903876 0.0 1.0 910.0 1
596 1 17.833588 14.792866 0.0 1.0 910.0 1
597 1 62.197603 78.181294 0.0 1.0 910.0 1
598 1 88.170107 62.743107 0.0 1.0 910.0 1
599 1 56.343291 61.514262 0.0 1.0 910.0 1
600 1 7.285912 75.792076 0.0 1.0 910.0 1
601 1 10.031156 3.021927 0.0 1.0 910.0 1
602 1 57.899589 97.045557 0.0 1.0 910.0 1
603 1 95.976848 34.670871 0.0 1.0 910.0 1
604 1 30.567811 47.555662 0.0 1.0 910.0 1
605 1 33.368729 20.712372 0.0 1.0 910.0 1
606 1 77.122408 51.958051 0.0 1.0 910.0 1
607 1 72.472864 14.927276 0.0 1.0 910.0 1
608 1 72.363847 52.333626 0.0 1.0 910.0 1
609 1 6.388367 99.332025 0.0 1.0 910.0 1
610 1 71.562479 33.869765 0.0 1.0 910.0 1
611 1 71.883164 72.146983 0.0 1.0 910.0 1
612 1 20.095966 86.765895 0.0 1.0 910.0 1
613 1 53.866172 53.756318 0.0 1.0 910.0 1
614 1 53.240466 71.695351 0.0 1.0 910.0 1
615 1 12.753783 23.211144 0.0 1.0 910.0 1
616 1 34.329242 32.586716 0.0 1.0 910.0 1
617 1 43.10002 72.058923 0.0 1.0 910.0 1
618 1 92.989329 73.359285 0.0 1.0 910.0 1
619 1 86.006649 18.119497 0.0 1.0 910.0 1
620 1 57.31774 45.550129 0.0 1.0 910.0 1
621 1 31.543856 77.268218 0.0 1.0 910.0 1
622 1 39.277506 43.953335 0.0 1.0 910.0 1
623 1 87.865437 42.747496 0.0 1.0 910.0 1
624 1 97.282911 56.538879 0.0 1.0 910.0 1
625 1 17.013921 91.439068 0.0 1.0 910.0 1
626 1 96.594492 33.646905 0.0 1.0 910.0 1
627 1 27.458468 24.06471 0.0 1.0 910.0 1
628 1 9.69104 29.947079 0.0 1.0 910.0 1
629 1 37.448879 10.526677 0.0 1.0 910.0 1
630 1 22.984333 76.285581 0.0 1.0 910.0 1
631 1 59.878445 99.502474 0.0 1.0 910.0 1
632 1 85.231598 94.782767 0.0 1.0 910.0 1
633 1 10.39466 21.890633 0.0 1.0 910.0 1
634 1 70.460685 46.32186 0.0 1.0 910.0 1
635 1 76.853375 10.495319 0.0 1.0 910.0 1
636 1 73.935479 21.573967 0.0 1.0 910.0 1
637 1 52.521999 96.706736 0.0 1.0 910.0 1
638 1 84.029802 21.290398 0.0 1.0 910.0 1
639 1 28.543799 59.791654 0.0 1.0 910.0 1
640 1 79.595413 13.040299 0.0 1.0 910.0 1
641 1 64.565479 30.387321 0.0 1.0 910.0 1
642 1 21.37239 6.104058 0.0 1.0 910.0 1
643 1 61.750713 59.750983 0.0 1.0 910.0 1
644 1 46.931957 65.525814 0.0 1.0 910.0 1
645 1 11.14427 78.914342 0.0 1.0 910.0 1
646 1 67.678205 43.752187 0.0 1.0 910.0 1
647 1 22.750747 50.449352 0.0 1.0 910.0 1
648 1 94.229239 96.418166 0.0 1.0 910.0 1
649 1 75.463567 59.008997 0.0 1.0 910.0 1
650 1 44.055923 35.828783 0.0 1.0 910.0 1
651 1 69.131431 52.594628 0.0 1.0 910.0 1
652 1 47.802522 66.196074 0.0 1.0 910.0 1
653 1 14.35517 28.110632 0.0 1.0 910.0 1
654 1 14.159389 94.163663 0.0 1.0 910.0 1
655 1 43.856924 9.618062 0.0 1.0 910.0 1
656 1 89.732888 31.117708 0.0 1.0 910.0 1
657 1 4.377791 48.401899 0.0 1.0 910.0 1
658 1 24.571489 12.137201 0.0 1.0 910.0 1
659 1 50.08542 98.462313 0.0 1.0 910.0 1
660 1 90.459078 17.954264 0.0 1.0 910.0 1
661 1 90.202926 23.267782 0.0 1.0 910.0 1
662 1 91.641412 88.894885 0.0 1.0 910.0 1
663 1 89.474544 27.825209 0.0 1.0 910.0 1
664 1 5.892851 45.341317 0.0 1.0 910.0 1
665 1 9.291742 81.886467 0.0 1.0 910.0 1
666 1 77.463339 11.397253 0.0 1.0 910.0 1
667 1 46.630575 8.398723 0.0 1.0 910.0 1
668 1 70.852134 65.734583 0.0 1.0 910.0 1
669 1 9.896872 87.370271 0.0 1.0 910.0 1
670 1 50.247009 46.610605 0.0 1.0 910.0 1
671 1 31.12267 11.265932 0.0 1.0 910.0 1
672 1 62.628726 65.063604 0.0 1.0 910.0 1
673 1 11.152018 49.120125 0.0 1.0 910.0 1
674 1 75.507161 92.599069 0.0 1.0 910.0 1
675 1 25.134291 48.427863 0.0 1.0 910.0 1
676 1 35.170994 91.517724 0.0 1.0 910.0 1
677 1 48.750046 61.486969 0.0 1.0 910.0 1
678 1 75.60023 80.450681 0.0 1.0 910.0 1
679 1 78.987853 47.176697 0.0 1.0 910.0 1
680 1 77.082415 91.087738 0.0 1.0 910.0 1
681 1 59.449484 69.364124 0.0 1.0 910.0 1
682 1 29.883074 74.458684 0.0 1.0 910.0 1
683 1 67.47836 62.472979 0.0 1.0 910.0 1
684 1 11.991636 70.521199 0.0 1.0 910.0 1
685 1 75.197443 26.47315 0.0 1.0 910.0 1
686 1 38.556849 63.675377 0.0 1.0 910.0 1
687 1 92.165046 37.927506 0.0 1.0 910.0 1
688 1 48.602737 84.33931 0.0 1.0 910.0 1
689 1 88.449986 96.378991 0.0 1.0 910.0 1
690 1 33.285509 81.927513 0.0 1.0 910.0 1
691 1 69.298831 46.74882 0.0 1.0 910.0 1
692 1 89.533041 86.640847 0.0 1.0 910.0 1
693 1 84.381488 82.479536 0.0 1.0 910.0 1
694 1 98.662846 36.436552 0.0 1.0 910.0 1
695 1 78.53716 43.333888 0.0 1.0 910.0 1
696 1 33.803404 67.481341 0.0 1.0 910.0 1
697 1 46.10923 31.627335 0.0 1.0 910.0 1
698 1 24.611404 21.380218 0.0 1.0 910.0 1
699 1 74.742073 68.82678 0.0 1.0 910.0 1
700 1 50.50459 96.767888 0.0 1.0 910.0 1
701 1 60.688077 24.268954 0.0 1.0 910.0 1
702 1 9.214743 83.308657 0.0 1.0 910.0 1
703 1 69.798983 12.646785 0.0 1.0 910.0 1
704 1 7.731649 97.559792 0.0 1.0 910.0 1
705 1 50.854256 60.742478 0.0 1.0 910.0 1
706 1 8.358873 89.362656 0.0 1.0 910.0 1
707 1 73.062501 30.843978 0.0 1.0 910.0 1
708 1 90.907648 63.14339 0.0 1.0 910.0 1
709 1 85.627423 55.81569 0.0 1.0 910.0 1
710 1 48.893845 44.378426 0.0 1.0 910.0 1
711 1 53.143756 12.763639 0.0 1.0 910.0 1
712 1 2.401449 47.493824 0.0 1.0 910.0 1
713 1 30.895329 45.712034 0.0 1.0 910.0 1
714 1 90.741032 76.955659 0.0 1.0 910.0 1
715 1 54.045632 80.601785 0.0 1.0 910.0 1
716 1 51.624484 73.757225 0.0 1.0 910.0 1
717 1 21.182874 86.934017 0.0 1.0 910.0 1
718 1 99.499909 54.318259 0.0 1.0 910.0 1
719 1 81.684151 78.857874 0.0 1.0 910.0 1
720 1 22.481305 75.238881 0.0 1.0 910.0 1