header line input data

2552 atoms
1 atom types
1 bonds
1 bond types

-5.0 55.0 xlo xhi
-5.0 55.0 ylo yhi
-2.0 2.0 zlo zhi

Atoms

1 1 36.305248 35.045934 0.0 1.0 910.0 1
2 1 10.98403 37.353049 0.0 1.0 910.0 1
3 1 7.568626 10.907111 0.0 1.0 910.0 1
4 1 34.483321 50.000042 0.0 1.0 910.0 1
5 1 18.35197 16.442542 0.0 1.0 910.0 1
6 1 32.802349 42.333406 0.0 1.0 910.0 1
7 1 25.676274 23.41935 0.0 1.0 910.0 1
8 1 12.892816 38.38069 0.0 1.0 910.0 1
9 1 23.817714 1.992632 0.0 1.0 910.0 1
10 1 12.66813 17.609842 0.0 1.0 910.0 1
11 1 9.14613 2.559569 0.0 1.0 910.0 1
12 1 15.703992 2.816796 0.0 1.0 910.0 1
13 1 46.977274 13.852891 0.0 1.0 910.0 1
14 1 14.752644 38.344051 0.0 1.0 910.0 1
15 1 10.038524 0.999725 0.0 1.0 910.0 1
16 1 31.416571 10.694399 0.0 1.0 910.0 1
17 1 26.379704 25.022425 0.0 1.0 910.0 1
18 1 6.2415 9.655924 0.0 1.0 910.0 1
19 1 10.29774 44.478192 0.0 1.0 910.0 1
20 1 10.842357 15.387948 0.0 1.0 910.0 1
21 1 8.026605 33.635113 0.0 1.0 910.0 1
22 1 7.785982 8.053832 0.0 1.0 910.0 1
23 1 7.728193 4.10892 0.0 1.0 910.0 1
24 1 39.63582 16.074757 0.0 1.0 910.0 1
25 1 23.083504 9.110064 0.0 1.0 910.0 1
26 1 49.710607 5.357046 0.0 1.0 910.0 1
27 1 38.765656 39.297144 0.0 1.0 910.0 1
28 1 37.96984 21.408684 0.0 1.0 910.0 1
29 1 23.774445 43.601467 0.0 1.0 910.0 1
30 1 25.589796 44.12076 0.0 1.0 910.0 1
31 1 36.226072 38.123654 0.0 1.0 910.0 1
32 1 23.79332 5.061863 0.0 1.0 910.0 1
33 1 14.937733 17.999965 0.0 1.0 910.0 1
34 1 -0.0 28.341031 0.0 1.0 910.0 1
35 1 33.405525 26.623364 0.0 1.0 910.0 1
36 1 49.276816 0.811624 0.0 1.0 910.0 1
37 1 13.64988 8.864278 0.0 1.0 910.0 1
38 1 33.410739 46.327199 0.0 1.0 910.0 1
39 1 16.827898 11.003064 0.0 1.0 910.0 1
40 1 6.042768 -0.0 0.0 1.0 910.0 1
41 1 37.814714 3.625931 0.0 1.0 910.0 1
42 1 7.117437 1.85118 0.0 1.0 910.0 1
43 1 18.159741 28.931142 0.0 1.0 910.0 1
44 1 43.238787 1.733011 0.0 1.0 910.0 1
45 1 29.162835 3.553291 0.0 1.0 910.0 1
46 1 -0.0 38.814718 0.0 1.0 910.0 1
47 1 22.695037 21.341345 0.0 1.0 910.0 1
48 1 49.979408 24.735789 0.0 1.0 910.0 1
49 1 46.343248 22.853402 0.0 1.0 910.0 1
50 1 14.852719 43.941776 0.0 1.0 910.0 1
51 1 34.478349 30.792394 0.0 1.0 910.0 1
52 1 15.203434 26.861195 0.0 1.0 910.0 1
53 1 43.649322 37.311383 0.0 1.0 910.0 1
54 1 3.333962 0.857027 0.0 1.0 910.0 1
55 1 39.952374 46.408932 0.0 1.0 910.0 1
56 1 17.924965 3.757774 0.0 1.0 910.0 1
57 1 6.919321 15.686677 0.0 1.0 910.0 1
58 1 24.820201 32.881057 0.0 1.0 910.0 1
59 1 10.746042 22.949753 0.0 1.0 910.0 1
60 1 22.009603 9.277545 0.0 1.0 910.0 1
61 1 18.077358 9.717643 0.0 1.0 910.0 1
62 1 5.453869 2.807327 0.0 1.0 910.0 1
63 1 24.739278 27.33061 0.0 1.0 910.0 1
64 1 13.063228 5.719343 0.0 1.0 910.0 1
65 1 33.608926 27.602535 0.0 1.0 910.0 1
66 1 12.84528 36.321939 0.0 1.0 910.0 1
67 1 36.102258 19.376459 0.0 1.0 910.0 1
68 1 50.000015 39.149511 0.0 1.0 910.0 1
69 1 37.60914 37.476593 0.0 1.0 910.0 1
70 1 3.891936 -0.0 0.0 1.0 910.0 1
71 1 16.603507 31.177802 0.0 1.0 910.0 1
72 1 26.017186 25.954342 0.0 1.0 910.0 1
73 1 23.479138 44.646093 0.0 1.0 910.0 1
74 1 35.79254 37.125609 0.0 1.0 910.0 1
75 1 45.569167 15.855475 0.0 1.0 910.0 1
76 1 4.993405 28.740929 0.0 1.0 910.0 1
77 1 13.423404 16.861573 0.0 1.0 910.0 1
78 1 10.144283 9.637575 0.0 1.0 910.0 1
79 1 47.612649 9.19113 0.0 1.0 910.0 1
80 1 -0.0 15.317846 0.0 1.0 910.0 1
81 1 17.859226 40.267585 0.0 1.0 910.0 1
82 1 39.207209 15.073966 0.0 1.0 910.0 1
83 1 34.063172 0.857307 0.0 1.0 910.0 1
84 1 -0.0 14.226171 0.0 1.0 910.0 1
85 1 11.228173 13.279487 0.0 1.0 910.0 1
86 1 11.182271 42.815714 0.0 1.0 910.0 1
87 1 5.170242 14.556873 0.0 1.0 910.0 1
88 1 45.482864 29.906689 0.0 1.0 910.0 1
89 1 48.135063 29.380755 0.0 1.0 910.0 1
90 1 23.951978 30.180946 0.0 1.0 910.0 1
91 1 45.421266 1.720284 0.0 1.0 910.0 1
92 1 9.826896 18.078803 0.0 1.0 910.0 1
93 1 10.971369 0.343284 0.0 1.0 910.0 1
94 1 49.999416 33.716841 0.0 1.0 910.0 1
95 1 41.570466 23.427808 0.0 1.0 910.0 1
96 1 47.353211 16.926781 0.0 1.0 910.0 1
97 1 39.397783 8.362471 0.0 1.0 910.0 1
98 1 0.0 6.77406 0.0 1.0 910.0 1
99 1 15.836331 19.985773 0.0 1.0 910.0 1
100 1 39.631643 41.441341 0.0 1.0 910.0 1
101 1 12.232628 45.499604 0.0 1.0 910.0 1
102 1 13.636799 32.390678 0.0 1.0 910.0 1
103 1 3.636122 14.955728 0.0 1.0 910.0 1
104 1 -2e-06 3.86061 0.0 1.0 910.0 1
105 1 45.476389 28.826163 0.0 1.0 910.0 1
106 1 0.000971 49.999191 0.0 1.0 910.0 1
107 1 8.449171 49.999119 0.0 1.0 910.0 1
108 1 27.14907 15.116722 0.0 1.0 910.0 1
109 1 5.125545 29.817987 0.0 1.0 910.0 1
110 1 -1.6e-05 10.882612 0.0 1.0 910.0 1
111 1 50.000012 16.370603 0.0 1.0 910.0 1
112 1 9.930298 20.941255 0.0 1.0 910.0 1
113 1 33.48073 41.491268 0.0 1.0 910.0 1
114 1 49.160361 37.520078 0.0 1.0 910.0 1
115 1 2.349794 27.414299 0.0 1.0 910.0 1
116 1 37.051677 10.101125 0.0 1.0 910.0 1
117 1 21.90448 5.068834 0.0 1.0 910.0 1
118 1 30.75752 14.088638 0.0 1.0 910.0 1
119 1 18.202755 2.701129 0.0 1.0 910.0 1
120 1 38.337679 6.451604 0.0 1.0 910.0 1
121 1 17.171664 7.619076 0.0 1.0 910.0 1
122 1 14.854727 4.534074 0.0 1.0 910.0 1
123 1 1.874845 7.43254 0.0 1.0 910.0 1
124 1 43.768859 6.416959 0.0 1.0 910.0 1
125 1 42.680506 8.316303 0.0 1.0 910.0 1
126 1 43.292399 17.440034 0.0 1.0 910.0 1
127 1 32.70434 39.479836 0.0 1.0 910.0 1
128 1 45.994968 12.00036 0.0 1.0 910.0 1
129 1 7.520889 6.998983 0.0 1.0 910.0 1
130 1 1.919778 3.43624 0.0 1.0 910.0 1
131 1 13.016025 47.249517 0.0 1.0 910.0 1
132 1 49.128628 45.019002 0.0 1.0 910.0 1
133 1 32.183155 18.098705 0.0 1.0 910.0 1
134 1 43.839722 40.200455 0.0 1.0 910.0 1
135 1 0.461389 1.962162 0.0 1.0 910.0 1
136 1 45.469732 27.740582 0.0 1.0 910.0 1
137 1 50.000002 8.215719 0.0 1.0 910.0 1
138 1 14.501334 17.003458 0.0 1.0 910.0 1
139 1 26.836037 10.049619 0.0 1.0 910.0 1
140 1 46.35023 23.931645 0.0 1.0 910.0 1
141 1 1.732168 -1e-06 0.0 1.0 910.0 1
142 1 15.782372 11.262619 0.0 1.0 910.0 1
143 1 39.442408 2.687731 0.0 1.0 910.0 1
144 1 27.573171 17.949469 0.0 1.0 910.0 1
145 1 9.442372 17.06529 0.0 1.0 910.0 1
146 1 47.378585 38.578089 0.0 1.0 910.0 1
147 1 3.582068 49.836365 0.0 1.0 910.0 1
148 1 27.728478 20.226359 0.0 1.0 910.0 1
149 1 31.408658 1.639558 0.0 1.0 910.0 1
150 1 32.392909 32.934398 0.0 1.0 910.0 1
151 1 45.455667 9.182586 0.0 1.0 910.0 1
152 1 6.987585 30.924714 0.0 1.0 910.0 1
153 1 27.879801 42.451886 0.0 1.0 910.0 1
154 1 28.326813 35.925658 0.0 1.0 910.0 1
155 1 32.311286 46.301027 0.0 1.0 910.0 1
156 1 19.232792 23.289841 0.0 1.0 910.0 1
157 1 37.952539 25.308131 0.0 1.0 910.0 1
158 1 17.139323 23.922277 0.0 1.0 910.0 1
159 1 6.158875 24.189623 0.0 1.0 910.0 1
160 1 11.594895 17.42594 0.0 1.0 910.0 1
161 1 38.510033 29.458333 0.0 1.0 910.0 1
162 1 1.999626 36.890659 0.0 1.0 910.0 1
163 1 26.910702 34.794235 0.0 1.0 910.0 1
164 1 6.187527 34.778755 0.0 1.0 910.0 1
165 1 39.620106 39.816603 0.0 1.0 910.0 1
166 1 -0.0 8.956831 0.0 1.0 910.0 1
167 1 44.447541 22.84404 0.0 1.0 910.0 1
168 1 49.157065 16.908581 0.0 1.0 910.0 1
169 1 1.749695 42.009 0.0 1.0 910.0 1
170 1 45.47719 36.415215 0.0 1.0 910.0 1
171 1 25.127118 26.409438 0.0 1.0 910.0 1
172 1 31.278735 5.465387 0.0 1.0 910.0 1
173 1 9.395673 49.501029 0.0 1.0 910.0 1
174 1 39.690864 38.819142 0.0 1.0 910.0 1
175 1 24.864835 0.017165 0.0 1.0 910.0 1
176 1 4.137731 19.083251 0.0 1.0 910.0 1
177 1 37.739793 42.147685 0.0 1.0 910.0 1
178 1 32.898096 45.362676 0.0 1.0 910.0 1
179 1 32.514246 26.170094 0.0 1.0 910.0 1
180 1 44.217793 19.60304 0.0 1.0 910.0 1
181 1 26.520464 4.522074 0.0 1.0 910.0 1
182 1 47.289968 24.469598 0.0 1.0 910.0 1
183 1 37.410759 23.132152 0.0 1.0 910.0 1
184 1 45.436987 25.561128 0.0 1.0 910.0 1
185 1 17.651274 28.070172 0.0 1.0 910.0 1
186 1 29.419674 30.696429 0.0 1.0 910.0 1
187 1 35.14712 25.392137 0.0 1.0 910.0 1
188 1 24.612983 12.148433 0.0 1.0 910.0 1
189 1 34.542207 5.483415 0.0 1.0 910.0 1
190 1 23.417549 13.968348 0.0 1.0 910.0 1
191 1 46.502205 12.934032 0.0 1.0 910.0 1
192 1 49.11859 24.226895 0.0 1.0 910.0 1
193 1 50.000012 45.509596 0.0 1.0 910.0 1
194 1 24.332198 41.507648 0.0 1.0 910.0 1
195 1 44.51488 26.110273 0.0 1.0 910.0 1
196 1 28.588938 26.325649 0.0 1.0 910.0 1
197 1 14.788154 3.458867 0.0 1.0 910.0 1
198 1 28.524293 41.635562 0.0 1.0 910.0 1
199 1 46.510136 39.073825 0.0 1.0 910.0 1
200 1 45.952735 6.38476 0.0 1.0 910.0 1
201 1 19.778635 36.870971 0.0 1.0 910.0 1
202 1 43.644698 18.408616 0.0 1.0 910.0 1
203 1 29.440096 11.304254 0.0 1.0 910.0 1
204 1 47.069227 49.255822 0.0 1.0 910.0 1
205 1 43.597032 29.924852 0.0 1.0 910.0 1
206 1 10.384357 47.767064 0.0 1.0 910.0 1
207 1 7.500806 13.817682 0.0 1.0 910.0 1
208 1 10.805448 8.84807 0.0 1.0 910.0 1
209 1 18.903296 29.599793 0.0 1.0 910.0 1
210 1 50.000014 30.716871 0.0 1.0 910.0 1
211 1 30.737194 25.25305 0.0 1.0 910.0 1
212 1 45.464144 38.590079 0.0 1.0 910.0 1
213 1 27.837665 12.342329 0.0 1.0 910.0 1
214 1 19.6845 40.765458 0.0 1.0 910.0 1
215 1 37.501296 11.081573 0.0 1.0 910.0 1
216 1 9.493758 48.303113 0.0 1.0 910.0 1
217 1 47.329204 19.078253 0.0 1.0 910.0 1
218 1 47.576013 5.434574 0.0 1.0 910.0 1
219 1 30.957287 12.68504 0.0 1.0 910.0 1
220 1 17.997398 13.622949 0.0 1.0 910.0 1
221 1 13.001034 30.368153 0.0 1.0 910.0 1
222 1 44.382429 17.552198 0.0 1.0 910.0 1
223 1 24.076106 35.751179 0.0 1.0 910.0 1
224 1 39.111136 35.173337 0.0 1.0 910.0 1
225 1 34.136717 12.611194 0.0 1.0 910.0 1
226 1 26.550624 16.025364 0.0 1.0 910.0 1
227 1 24.726068 2.410822 0.0 1.0 910.0 1
228 1 37.011229 31.900079 0.0 1.0 910.0 1
229 1 29.080033 28.213185 0.0 1.0 910.0 1
230 1 5.446982 6.466905 0.0 1.0 910.0 1
231 1 26.576066 3.44106 0.0 1.0 910.0 1
232 1 20.110849 8.226441 0.0 1.0 910.0 1
233 1 35.650984 44.645297 0.0 1.0 910.0 1
234 1 10.339716 29.583022 0.0 1.0 910.0 1
235 1 36.924137 16.57427 0.0 1.0 910.0 1
236 1 2.476201 34.880432 0.0 1.0 910.0 1
237 1 26.624238 7.718125 0.0 1.0 910.0 1
238 1 30.904743 44.751101 0.0 1.0 910.0 1
239 1 28.694752 19.969084 0.0 1.0 910.0 1
240 1 42.179763 42.732556 0.0 1.0 910.0 1
241 1 40.247243 29.855636 0.0 1.0 910.0 1
242 1 3.591896 22.826884 0.0 1.0 910.0 1
243 1 4.955307 12.272853 0.0 1.0 910.0 1
244 1 44.799993 16.583987 0.0 1.0 910.0 1
245 1 -0.0 35.642983 0.0 1.0 910.0 1
246 1 44.402069 11.015175 0.0 1.0 910.0 1
247 1 29.331323 43.657624 0.0 1.0 910.0 1
248 1 41.15543 41.014859 0.0 1.0 910.0 1
249 1 21.326735 38.400409 0.0 1.0 910.0 1
250 1 23.419316 29.337786 0.0 1.0 910.0 1
251 1 18.199789 45.992714 0.0 1.0 910.0 1
252 1 1.80469 46.37919 0.0 1.0 910.0 1
253 1 25.966094 40.28496 0.0 1.0 910.0 1
254 1 22.010205 50.000003 0.0 1.0 910.0 1
255 1 31.625861 25.711227 0.0 1.0 910.0 1
256 1 33.85381 42.453126 0.0 1.0 910.0 1
257 1 32.705777 14.415004 0.0 1.0 910.0 1
258 1 41.344947 15.335631 0.0 1.0 910.0 1
259 1 22.675871 37.075927 0.0 1.0 910.0 1
260 1 30.265748 40.968809 0.0 1.0 910.0 1
261 1 25.579606 33.531647 0.0 1.0 910.0 1
262 1 36.1979 2.67744 0.0 1.0 910.0 1
263 1 33.548393 -4e-06 0.0 1.0 910.0 1
264 1 35.173495 19.006162 0.0 1.0 910.0 1
265 1 14.693687 2.421976 0.0 1.0 910.0 1
266 1 26.714984 18.698057 0.0 1.0 910.0 1
267 1 28.428159 8.575852 0.0 1.0 910.0 1
268 1 9.026996 4.401862 0.0 1.0 910.0 1
269 1 8.654571 27.554943 0.0 1.0 910.0 1
270 1 45.459239 17.966992 0.0 1.0 910.0 1
271 1 9.503635 29.034484 0.0 1.0 910.0 1
272 1 14.261395 -1.7e-05 0.0 1.0 910.0 1
273 1 49.981184 28.706044 0.0 1.0 910.0 1
274 1 44.869846 47.391935 0.0 1.0 910.0 1
275 1 33.866938 14.47387 0.0 1.0 910.0 1
276 1 18.079511 50.000003 0.0 1.0 910.0 1
277 1 13.795897 14.63646 0.0 1.0 910.0 1
278 1 38.482865 44.398654 0.0 1.0 910.0 1
279 1 32.295445 8.896976 0.0 1.0 910.0 1
280 1 46.435522 32.623822 0.0 1.0 910.0 1
281 1 19.003909 32.233177 0.0 1.0 910.0 1
282 1 25.202359 11.232609 0.0 1.0 910.0 1
283 1 5.217137 19.238091 0.0 1.0 910.0 1
284 1 9.781672 31.3944 0.0 1.0 910.0 1
285 1 1.440002 22.399314 0.0 1.0 910.0 1
286 1 11.229444 43.903982 0.0 1.0 910.0 1
287 1 38.660607 20.634602 0.0 1.0 910.0 1
288 1 33.739367 20.397201 0.0 1.0 910.0 1
289 1 6.934768 29.750429 0.0 1.0 910.0 1
290 1 43.522488 24.490862 0.0 1.0 910.0 1
291 1 43.212012 50.000005 0.0 1.0 910.0 1
292 1 20.367335 18.468597 0.0 1.0 910.0 1
293 1 0.891172 35.096618 0.0 1.0 910.0 1
294 1 11.133262 41.72275 0.0 1.0 910.0 1
295 1 33.98255 45.420182 0.0 1.0 910.0 1
296 1 29.234378 21.749721 0.0 1.0 910.0 1
297 1 37.164198 35.750748 0.0 1.0 910.0 1
298 1 44.576365 32.621951 0.0 1.0 910.0 1
299 1 29.519487 20.542698 0.0 1.0 910.0 1
300 1 3.205005 38.610985 0.0 1.0 910.0 1
301 1 22.876841 49.501066 0.0 1.0 910.0 1
302 1 31.110202 21.662162 0.0 1.0 910.0 1
303 1 12.099429 42.236401 0.0 1.0 910.0 1
304 1 49.160401 38.606343 0.0 1.0 910.0 1
305 1 19.258707 35.074024 0.0 1.0 910.0 1
306 1 37.532053 15.780329 0.0 1.0 910.0 1
307 1 8.518132 47.783932 0.0 1.0 910.0 1
308 1 28.458694 47.381134 0.0 1.0 910.0 1
309 1 26.634352 39.438691 0.0 1.0 910.0 1
310 1 30.00841 46.479128 0.0 1.0 910.0 1
311 1 25.095886 13.11853 0.0 1.0 910.0 1
312 1 24.634057 1.415092 0.0 1.0 910.0 1
313 1 47.000223 10.134176 0.0 1.0 910.0 1
314 1 28.680836 34.092407 0.0 1.0 910.0 1
315 1 42.742154 39.992979 0.0 1.0 910.0 1
316 1 1.810779 18.607379 0.0 1.0 910.0 1
317 1 35.926373 39.984452 0.0 1.0 910.0 1
318 1 3.401953 35.3872 0.0 1.0 910.0 1
319 1 44.80108 13.837517 0.0 1.0 910.0 1
320 1 47.317636 20.159852 0.0 1.0 910.0 1
321 1 7.016919 8.838546 0.0 1.0 910.0 1
322 1 10.910858 35.18084 0.0 1.0 910.0 1
323 1 5.755485 23.167506 0.0 1.0 910.0 1
324 1 49.121373 12.545295 0.0 1.0 910.0 1
325 1 25.537371 31.041604 0.0 1.0 910.0 1
326 1 16.809595 40.547645 0.0 1.0 910.0 1
327 1 11.88917 0.998028 0.0 1.0 910.0 1
328 1 3.112899 8.791767 0.0 1.0 910.0 1
329 1 24.688207 23.572065 0.0 1.0 910.0 1
330 1 49.132233 43.994272 0.0 1.0 910.0 1
331 1 41.832997 21.029554 0.0 1.0 910.0 1
332 1 1.761636 48.698432 0.0 1.0 910.0 1
333 1 2.702912 15.515976 0.0 1.0 910.0 1
334 1 48.165217 30.464199 0.0 1.0 910.0 1
335 1 44.368402 41.049255 0.0 1.0 910.0 1
336 1 0.874626 12.539412 0.0 1.0 910.0 1
337 1 34.431155 8.440752 0.0 1.0 910.0 1
338 1 42.683332 4.556106 0.0 1.0 910.0 1
339 1 12.743326 31.334294 0.0 1.0 910.0 1
340 1 29.533897 47.359354 0.0 1.0 910.0 1
341 1 20.818849 9.632227 0.0 1.0 910.0 1
342 1 6.149814 26.192852 0.0 1.0 910.0 1
343 1 38.289847 49.163948 0.0 1.0 910.0 1
344 1 41.717013 36.345176 0.0 1.0 910.0 1
345 1 39.845771 14.20172 0.0 1.0 910.0 1
346 1 31.672447 26.709742 0.0 1.0 910.0 1
347 1 47.054703 2.645911 0.0 1.0 910.0 1
348 1 19.751933 33.105117 0.0 1.0 910.0 1
349 1 17.145871 46.262767 0.0 1.0 910.0 1
350 1 29.336783 15.190828 0.0 1.0 910.0 1
351 1 4.624234 44.654969 0.0 1.0 910.0 1
352 1 48.174128 12.034144 0.0 1.0 910.0 1
353 1 26.86486 42.329834 0.0 1.0 910.0 1
354 1 32.321332 28.573588 0.0 1.0 910.0 1
355 1 40.571258 36.59942 0.0 1.0 910.0 1
356 1 28.371483 11.42906 0.0 1.0 910.0 1
357 1 27.710655 23.829845 0.0 1.0 910.0 1
358 1 26.436388 41.232896 0.0 1.0 910.0 1
359 1 16.209936 7.111513 0.0 1.0 910.0 1
360 1 50.00001 35.912885 0.0 1.0 910.0 1
361 1 16.812843 15.340419 0.0 1.0 910.0 1
362 1 13.853641 17.868769 0.0 1.0 910.0 1
363 1 21.92365 6.141307 0.0 1.0 910.0 1
364 1 47.292774 28.841729 0.0 1.0 910.0 1
365 1 0.908176 48.127344 0.0 1.0 910.0 1
366 1 12.293257 29.661893 0.0 1.0 910.0 1
367 1 40.486341 49.160468 0.0 1.0 910.0 1
368 1 2.433183 33.710981 0.0 1.0 910.0 1
369 1 13.038234 15.844697 0.0 1.0 910.0 1
370 1 4.15887 9.082732 0.0 1.0 910.0 1
371 1 47.002657 4.506994 0.0 1.0 910.0 1
372 1 45.4282 -2.1e-05 0.0 1.0 910.0 1
373 1 22.82661 0.209346 0.0 1.0 910.0 1
374 1 34.465785 38.814045 0.0 1.0 910.0 1
375 1 41.548819 13.478487 0.0 1.0 910.0 1
376 1 39.209094 43.430549 0.0 1.0 910.0 1
377 1 19.992619 24.074237 0.0 1.0 910.0 1
378 1 25.959477 22.229836 0.0 1.0 910.0 1
379 1 22.908414 19.351687 0.0 1.0 910.0 1
380 1 4.675437 23.001923 0.0 1.0 910.0 1
381 1 21.665216 44.135425 0.0 1.0 910.0 1
382 1 1.705416 39.877726 0.0 1.0 910.0 1
383 1 0.866084 0.499895 0.0 1.0 910.0 1
384 1 2.474451 35.93483 0.0 1.0 910.0 1
385 1 31.59207 8.066199 0.0 1.0 910.0 1
386 1 24.708196 3.436543 0.0 1.0 910.0 1
387 1 28.074474 28.161924 0.0 1.0 910.0 1
388 1 16.651754 17.226752 0.0 1.0 910.0 1
389 1 17.927889 15.487573 0.0 1.0 910.0 1
390 1 32.466052 17.140182 0.0 1.0 910.0 1
391 1 5.4981 17.331173 0.0 1.0 910.0 1
392 1 28.613585 20.96579 0.0 1.0 910.0 1
393 1 20.752399 0.027911 0.0 1.0 910.0 1
394 1 8.031206 5.157744 0.0 1.0 910.0 1
395 1 37.813426 32.632806 0.0 1.0 910.0 1
396 1 13.878475 4.053205 0.0 1.0 910.0 1
397 1 12.170601 47.889129 0.0 1.0 910.0 1
398 1 42.12958 48.300724 0.0 1.0 910.0 1
399 1 22.769145 24.157702 0.0 1.0 910.0 1
400 1 19.56787 14.648016 0.0 1.0 910.0 1
401 1 24.158259 19.662779 0.0 1.0 910.0 1
402 1 10.316614 50.0 0.0 1.0 910.0 1
403 1 44.975697 41.843721 0.0 1.0 910.0 1
404 1 5.498085 0.890871 0.0 1.0 910.0 1
405 1 48.002596 4.496044 0.0 1.0 910.0 1
406 1 3.324018 24.711268 0.0 1.0 910.0 1
407 1 8.689258 15.03513 0.0 1.0 910.0 1
408 1 22.453425 12.037889 0.0 1.0 910.0 1
409 1 12.324851 27.558783 0.0 1.0 910.0 1
410 1 47.386278 46.385348 0.0 1.0 910.0 1
411 1 49.697062 9.168722 0.0 1.0 910.0 1
412 1 50.000003 43.49734 0.0 1.0 910.0 1
413 1 12.469451 28.630043 0.0 1.0 910.0 1
414 1 8.341891 10.149882 0.0 1.0 910.0 1
415 1 22.032242 17.55391 0.0 1.0 910.0 1
416 1 10.056049 37.925406 0.0 1.0 910.0 1
417 1 41.564487 24.545979 0.0 1.0 910.0 1
418 1 29.786999 44.624677 0.0 1.0 910.0 1
419 1 0.056016 16.407531 0.0 1.0 910.0 1
420 1 38.879859 36.231798 0.0 1.0 910.0 1
421 1 15.048447 10.468489 0.0 1.0 910.0 1
422 1 46.363918 20.693446 0.0 1.0 910.0 1
423 1 17.693278 37.421626 0.0 1.0 910.0 1
424 1 4.368107 2.772598 0.0 1.0 910.0 1
425 1 22.686425 16.74552 0.0 1.0 910.0 1
426 1 37.409368 41.146964 0.0 1.0 910.0 1
427 1 35.972807 32.217912 0.0 1.0 910.0 1
428 1 39.954808 7.412997 0.0 1.0 910.0 1
429 1 15.614482 44.711 0.0 1.0 910.0 1
430 1 26.344417 32.880956 0.0 1.0 910.0 1
431 1 12.09659 21.2493 0.0 1.0 910.0 1
432 1 0.0 31.704817 0.0 1.0 910.0 1
433 1 33.877785 43.452814 0.0 1.0 910.0 1
434 1 34.582884 1.732254 0.0 1.0 910.0 1
435 1 19.075144 5.629728 0.0 1.0 910.0 1
436 1 10.077159 23.817693 0.0 1.0 910.0 1
437 1 41.102978 22.289473 0.0 1.0 910.0 1
438 1 13.144195 43.857205 0.0 1.0 910.0 1
439 1 42.665326 49.162671 0.0 1.0 910.0 1
440 1 24.725727 18.751082 0.0 1.0 910.0 1
441 1 38.121479 35.461664 0.0 1.0 910.0 1
442 1 21.985206 8.252508 0.0 1.0 910.0 1
443 1 2.037066 13.562359 0.0 1.0 910.0 1
444 1 49.121565 29.216917 0.0 1.0 910.0 1
445 1 3.543707 40.869309 0.0 1.0 910.0 1
446 1 41.036145 48.2949 0.0 1.0 910.0 1
447 1 33.122461 19.578904 0.0 1.0 910.0 1
448 1 39.998361 -3e-06 0.0 1.0 910.0 1
449 1 49.165641 34.268929 0.0 1.0 910.0 1
450 1 44.31771 48.313982 0.0 1.0 910.0 1
451 1 39.225841 10.301993 0.0 1.0 910.0 1
452 1 4.235841 4.870708 0.0 1.0 910.0 1
453 1 48.262913 19.621494 0.0 1.0 910.0 1
454 1 21.760412 27.472863 0.0 1.0 910.0 1
455 1 16.67322 37.640735 0.0 1.0 910.0 1
456 1 36.929865 27.987852 0.0 1.0 910.0 1
457 1 27.62335 36.751553 0.0 1.0 910.0 1
458 1 31.224288 30.201906 0.0 1.0 910.0 1
459 1 32.413167 41.318534 0.0 1.0 910.0 1
460 1 46.401335 50.000035 0.0 1.0 910.0 1
461 1 5.234453 34.250386 0.0 1.0 910.0 1
462 1 31.927714 37.475052 0.0 1.0 910.0 1
463 1 47.345742 32.092503 0.0 1.0 910.0 1
464 1 39.969998 5.518579 0.0 1.0 910.0 1
465 1 9.666737 22.805038 0.0 1.0 910.0 1
466 1 43.650896 33.156165 0.0 1.0 910.0 1
467 1 21.492873 25.47271 0.0 1.0 910.0 1
468 1 11.011489 3.680999 0.0 1.0 910.0 1
469 1 19.188426 2.488233 0.0 1.0 910.0 1
470 1 1.965122 12.472951 0.0 1.0 910.0 1
471 1 9.447276 10.360732 0.0 1.0 910.0 1
472 1 30.965004 20.672811 0.0 1.0 910.0 1
473 1 10.515133 24.826192 0.0 1.0 910.0 1
474 1 14.920827 24.459382 0.0 1.0 910.0 1
475 1 49.002078 4.464268 0.0 1.0 910.0 1
476 1 31.725678 27.730613 0.0 1.0 910.0 1
477 1 -0.0 46.405119 0.0 1.0 910.0 1
478 1 42.53073 24.024611 0.0 1.0 910.0 1
479 1 2.325805 9.55316 0.0 1.0 910.0 1
480 1 18.492092 21.10604 0.0 1.0 910.0 1
481 1 13.806793 2.986147 0.0 1.0 910.0 1
482 1 42.151067 1.738595 0.0 1.0 910.0 1
483 1 40.806569 27.720654 0.0 1.0 910.0 1
484 1 28.664896 17.914889 0.0 1.0 910.0 1
485 1 11.653243 8.105685 0.0 1.0 910.0 1
486 1 19.670676 -1e-06 0.0 1.0 910.0 1
487 1 3.363256 34.280349 0.0 1.0 910.0 1
488 1 20.610493 44.405458 0.0 1.0 910.0 1
489 1 44.334097 12.863499 0.0 1.0 910.0 1
490 1 24.423701 21.860896 0.0 1.0 910.0 1
491 1 32.497184 5.209293 0.0 1.0 910.0 1
492 1 41.578311 18.192034 0.0 1.0 910.0 1
493 1 42.789356 11.785141 0.0 1.0 910.0 1
494 1 31.315811 -4e-06 0.0 1.0 910.0 1
495 1 1.817892 29.459295 0.0 1.0 910.0 1
496 1 28.103378 1.719068 0.0 1.0 910.0 1
497 1 39.725436 20.860178 0.0 1.0 910.0 1
498 1 34.54847 13.522472 0.0 1.0 910.0 1
499 1 33.245142 15.256991 0.0 1.0 910.0 1
500 1 18.917399 39.996617 0.0 1.0 910.0 1
501 1 8.584933 22.641486 0.0 1.0 910.0 1
502 1 13.785674 35.646853 0.0 1.0 910.0 1
503 1 46.472763 44.588749 0.0 1.0 910.0 1
504 1 38.996601 16.945444 0.0 1.0 910.0 1
505 1 10.522121 17.2419 0.0 1.0 910.0 1
506 1 6.119258 32.591856 0.0 1.0 910.0 1
507 1 38.042682 31.579978 0.0 1.0 910.0 1
508 1 28.560634 22.687279 0.0 1.0 910.0 1
509 1 41.587248 47.364333 0.0 1.0 910.0 1
510 1 18.970789 49.546548 0.0 1.0 910.0 1
511 1 35.098465 24.3934 0.0 1.0 910.0 1
512 1 47.208967 26.572625 0.0 1.0 910.0 1
513 1 1.044521 39.003299 0.0 1.0 910.0 1
514 1 29.218533 1.700892 0.0 1.0 910.0 1
515 1 34.90827 16.287605 0.0 1.0 910.0 1
516 1 30.552153 39.129203 0.0 1.0 910.0 1
517 1 24.526837 28.307532 0.0 1.0 910.0 1
518 1 14.420413 12.555497 0.0 1.0 910.0 1
519 1 44.868341 2.658193 0.0 1.0 910.0 1
520 1 14.690737 33.997729 0.0 1.0 910.0 1
521 1 30.326073 22.281653 0.0 1.0 910.0 1
522 1 32.039491 22.031296 0.0 1.0 910.0 1
523 1 43.445022 39.281666 0.0 1.0 910.0 1
524 1 32.463965 25.16599 0.0 1.0 910.0 1
525 1 5.460476 27.023907 0.0 1.0 910.0 1
526 1 47.617146 1.722248 0.0 1.0 910.0 1
527 1 45.431123 20.133648 0.0 1.0 910.0 1
528 1 13.914043 20.576226 0.0 1.0 910.0 1
529 1 7.364921 41.839354 0.0 1.0 910.0 1
530 1 6.589655 0.898256 0.0 1.0 910.0 1
531 1 4.384293 38.135288 0.0 1.0 910.0 1
532 1 13.737639 22.445372 0.0 1.0 910.0 1
533 1 23.684164 21.189939 0.0 1.0 910.0 1
534 1 9.133792 38.500921 0.0 1.0 910.0 1
535 1 11.217879 16.406897 0.0 1.0 910.0 1
536 1 4.313767 34.815208 0.0 1.0 910.0 1
537 1 23.938769 46.472911 0.0 1.0 910.0 1
538 1 19.992089 10.194717 0.0 1.0 910.0 1
539 1 3.394454 5.893064 0.0 1.0 910.0 1
540 1 5.998836 12.514521 0.0 1.0 910.0 1
541 1 7.616167 14.857852 0.0 1.0 910.0 1
542 1 41.053461 -1.6e-05 0.0 1.0 910.0 1
543 1 37.715459 18.699332 0.0 1.0 910.0 1
544 1 38.455194 23.45813 0.0 1.0 910.0 1
545 1 0.903892 26.703613 0.0 1.0 910.0 1
546 1 25.458282 15.965343 0.0 1.0 910.0 1
547 1 10.323693 48.970811 0.0 1.0 910.0 1
548 1 48.272609 43.483345 0.0 1.0 910.0 1
549 1 34.577916 -1.5e-05 0.0 1.0 910.0 1
550 1 49.088519 13.630081 0.0 1.0 910.0 1
551 1 1.874542 19.705374 0.0 1.0 910.0 1
552 1 45.436371 42.773825 0.0 1.0 910.0 1
553 1 11.0125 21.103881 0.0 1.0 910.0 1
554 1 10.653982 30.905464 0.0 1.0 910.0 1
555 1 8.805707 29.7506 0.0 1.0 910.0 1
556 1 24.355533 31.095454 0.0 1.0 910.0 1
557 1 21.622394 33.447075 0.0 1.0 910.0 1
558 1 35.139113 14.329361 0.0 1.0 910.0 1
559 1 23.35053 31.136768 0.0 1.0 910.0 1
560 1 5.426987 40.80654 0.0 1.0 910.0 1
561 1 30.413091 16.943714 0.0 1.0 910.0 1
562 1 45.504101 32.078483 0.0 1.0 910.0 1
563 1 27.007951 25.820631 0.0 1.0 910.0 1
564 1 12.63873 32.328801 0.0 1.0 910.0 1
565 1 30.424569 33.516535 0.0 1.0 910.0 1
566 1 45.41784 21.225439 0.0 1.0 910.0 1
567 1 27.388007 4.024791 0.0 1.0 910.0 1
568 1 -0.0 27.246986 0.0 1.0 910.0 1
569 1 35.909111 16.432995 0.0 1.0 910.0 1
570 1 33.603755 17.742968 0.0 1.0 910.0 1
571 1 35.722089 13.517247 0.0 1.0 910.0 1
572 1 48.250901 20.700354 0.0 1.0 910.0 1
573 1 4.653227 45.750456 0.0 1.0 910.0 1
574 1 26.529964 28.258874 0.0 1.0 910.0 1
575 1 1.445049 50.0 0.0 1.0 910.0 1
576 1 25.89777 42.075445 0.0 1.0 910.0 1
577 1 10.108268 4.295758 0.0 1.0 910.0 1
578 1 24.234183 25.494497 0.0 1.0 910.0 1
579 1 48.263578 41.318812 0.0 1.0 910.0 1
580 1 22.33425 13.906448 0.0 1.0 910.0 1
581 1 44.610228 31.564328 0.0 1.0 910.0 1
582 1 44.537646 29.374826 0.0 1.0 910.0 1
583 1 11.983091 4.173928 0.0 1.0 910.0 1
584 1 17.898104 22.000572 0.0 1.0 910.0 1
585 1 31.398121 17.454216 0.0 1.0 910.0 1
586 1 37.267238 4.561525 0.0 1.0 910.0 1
587 1 22.883561 32.099514 0.0 1.0 910.0 1
588 1 31.255025 22.651267 0.0 1.0 910.0 1
589 1 30.413473 43.808949 0.0 1.0 910.0 1
590 1 20.008303 5.072506 0.0 1.0 910.0 1
591 1 37.723463 28.719845 0.0 1.0 910.0 1
592 1 8.367854 43.443014 0.0 1.0 910.0 1
593 1 34.668011 20.767656 0.0 1.0 910.0 1
594 1 36.019418 45.786885 0.0 1.0 910.0 1
595 1 26.655025 14.154743 0.0 1.0 910.0 1
596 1 27.739009 14.209785 0.0 1.0 910.0 1
597 1 15.785676 30.602184 0.0 1.0 910.0 1
598 1 11.461572 28.063468 0.0 1.0 910.0 1
599 1 10.129414 40.10958 0.0 1.0 910.0 1
600 1 1.813157 6.38211 0.0 1.0 910.0 1
601 1 11.652886 32.49641 0.0 1.0 910.0 1
602 1 6.576673 17.53056 0.0 1.0 910.0 1
603 1 31.802927 45.330188 0.0 1.0 910.0 1
604 1 34.413214 17.156404 0.0 1.0 910.0 1
605 1 24.131979 26.488912 0.0 1.0 910.0 1
606 1 33.002881 37.646001 0.0 1.0 910.0 1
607 1 6.969537 4.891044 0.0 1.0 910.0 1
608 1 32.669881 16.074877 0.0 1.0 910.0 1
609 1 49.13374 32.216691 0.0 1.0 910.0 1
610 1 2.718366 43.619904 0.0 1.0 910.0 1
611 1 42.709756 32.636824 0.0 1.0 910.0 1
612 1 33.254651 23.623413 0.0 1.0 910.0 1
613 1 41.78323 32.145225 0.0 1.0 910.0 1
614 1 15.71728 21.880059 0.0 1.0 910.0 1
615 1 27.840395 46.482638 0.0 1.0 910.0 1
616 1 15.740166 34.524086 0.0 1.0 910.0 1
617 1 15.401092 32.559325 0.0 1.0 910.0 1
618 1 31.373983 3.566803 0.0 1.0 910.0 1
619 1 3.275066 2.743156 0.0 1.0 910.0 1
620 1 28.533158 29.050255 0.0 1.0 910.0 1
621 1 39.471279 44.549154 0.0 1.0 910.0 1
622 1 34.056752 9.463038 0.0 1.0 910.0 1
623 1 5.15702 30.961972 0.0 1.0 910.0 1
624 1 46.390583 46.477934 0.0 1.0 910.0 1
625 1 13.06882 18.604429 0.0 1.0 910.0 1
626 1 14.751523 11.532454 0.0 1.0 910.0 1
627 1 6.770909 11.676296 0.0 1.0 910.0 1
628 1 33.838492 35.118201 0.0 1.0 910.0 1
629 1 23.770085 16.812982 0.0 1.0 910.0 1
630 1 14.758533 41.438113 0.0 1.0 910.0 1
631 1 38.621949 33.367091 0.0 1.0 910.0 1
632 1 18.98009 3.476351 0.0 1.0 910.0 1
633 1 9.902855 33.574786 0.0 1.0 910.0 1
634 1 24.118634 11.188654 0.0 1.0 910.0 1
635 1 7.109262 34.207178 0.0 1.0 910.0 1
636 1 21.046333 23.778288 0.0 1.0 910.0 1
637 1 13.432842 23.980878 0.0 1.0 910.0 1
638 1 42.697046 45.553048 0.0 1.0 910.0 1
639 1 20.966724 5.60662 0.0 1.0 910.0 1
640 1 45.968253 47.398147 0.0 1.0 910.0 1
641 1 28.439317 30.500226 0.0 1.0 910.0 1
642 1 25.717712 18.629977 0.0 1.0 910.0 1
643 1 18.46672 34.320818 0.0 1.0 910.0 1
644 1 13.364977 12.801669 0.0 1.0 910.0 1
645 1 16.421969 9.215876 0.0 1.0 910.0 1
646 1 43.814482 41.881784 0.0 1.0 910.0 1
647 1 40.310556 10.349782 0.0 1.0 910.0 1
648 1 12.969312 4.648334 0.0 1.0 910.0 1
649 1 18.591021 12.705731 0.0 1.0 910.0 1
650 1 50.000007 12.0678 0.0 1.0 910.0 1
651 1 32.057418 7.156764 0.0 1.0 910.0 1
652 1 32.243968 35.65052 0.0 1.0 910.0 1
653 1 44.324833 7.335454 0.0 1.0 910.0 1
654 1 43.594724 28.839436 0.0 1.0 910.0 1
655 1 4.286078 14.089703 0.0 1.0 910.0 1
656 1 30.792764 7.393543 0.0 1.0 910.0 1
657 1 49.999879 34.820333 0.0 1.0 910.0 1
658 1 26.220297 9.193786 0.0 1.0 910.0 1
659 1 33.034876 4.36616 0.0 1.0 910.0 1
660 1 27.081685 1.676153 0.0 1.0 910.0 1
661 1 39.537448 29.119201 0.0 1.0 910.0 1
662 1 20.312782 45.449612 0.0 1.0 910.0 1
663 1 10.326897 45.566958 0.0 1.0 910.0 1
664 1 38.143219 10.201902 0.0 1.0 910.0 1
665 1 24.498485 14.030105 0.0 1.0 910.0 1
666 1 15.016844 27.843585 0.0 1.0 910.0 1
667 1 35.920926 10.012978 0.0 1.0 910.0 1
668 1 5.908171 4.61364 0.0 1.0 910.0 1
669 1 43.785719 45.549463 0.0 1.0 910.0 1
670 1 19.279001 18.391555 0.0 1.0 910.0 1
671 1 11.423351 22.10422 0.0 1.0 910.0 1
672 1 19.571832 21.212561 0.0 1.0 910.0 1
673 1 7.283316 39.661279 0.0 1.0 910.0 1
674 1 31.750652 47.247404 0.0 1.0 910.0 1
675 1 36.999041 21.169013 0.0 1.0 910.0 1
676 1 26.59692 31.183879 0.0 1.0 910.0 1
677 1 0.82761 6.212779 0.0 1.0 910.0 1
678 1 37.641224 24.177764 0.0 1.0 910.0 1
679 1 31.575126 24.708038 0.0 1.0 910.0 1
680 1 46.4341 33.710481 0.0 1.0 910.0 1
681 1 21.613641 37.356875 0.0 1.0 910.0 1
682 1 21.523829 48.03275 0.0 1.0 910.0 1
683 1 17.409387 21.031098 0.0 1.0 910.0 1
684 1 42.145111 3.619688 0.0 1.0 910.0 1
685 1 4.42537 10.143965 0.0 1.0 910.0 1
686 1 -2e-06 40.965008 0.0 1.0 910.0 1
687 1 5.174432 32.058304 0.0 1.0 910.0 1
688 1 40.228598 40.639428 0.0 1.0 910.0 1
689 1 8.889133 31.966328 0.0 1.0 910.0 1
690 1 29.930327 28.738394 0.0 1.0 910.0 1
691 1 11.930334 3.085799 0.0 1.0 910.0 1
692 1 43.769847 4.543055 0.0 1.0 910.0 1
693 1 8.436897 45.619501 0.0 1.0 910.0 1
694 1 10.023429 36.839615 0.0 1.0 910.0 1
695 1 29.326995 6.222903 0.0 1.0 910.0 1
696 1 22.207899 15.775377 0.0 1.0 910.0 1
697 1 -0.0 39.912697 0.0 1.0 910.0 1
698 1 34.843496 39.784475 0.0 1.0 910.0 1
699 1 48.166335 2.658416 0.0 1.0 910.0 1
700 1 14.149467 27.344003 0.0 1.0 910.0 1
701 1 41.779011 16.32998 0.0 1.0 910.0 1
702 1 34.70059 10.231461 0.0 1.0 910.0 1
703 1 36.59935 23.807948 0.0 1.0 910.0 1
704 1 6.152978 33.684848 0.0 1.0 910.0 1
705 1 21.87181 32.384109 0.0 1.0 910.0 1
706 1 12.397879 19.44954 0.0 1.0 910.0 1
707 1 24.666454 10.295925 0.0 1.0 910.0 1
708 1 50.000018 22.735904 0.0 1.0 910.0 1