header line input data

2552 atoms
1 atom types
1 bonds
1 bond types

-5.0 55.0 xlo xhi
-5.0 55.0 ylo yhi
-2.0 2.0 zlo zhi

Atoms

1 1 36.305248 35.045934 0.0 1.0 910.0 6
2 1 10.98403 37.353049 0.0 1.0 910.0 6
3 1 7.568626 10.907111 0.0 1.0 910.0 6
4 1 34.483321 50.000042 0.0 1.0 910.0 6
5 1 18.35197 16.442542 0.0 1.0 910.0 6
6 1 32.802349 42.333406 0.0 1.0 910.0 6
7 1 25.676274 23.41935 0.0 1.0 910.0 6
8 1 12.892816 38.38069 0.0 1.0 910.0 6
9 1 23.817714 1.992632 0.0 1.0 910.0 6
10 1 12.66813 17.609842 0.0 1.0 910.0 6
11 1 9.14613 2.559569 0.0 1.0 910.0 6
12 1 15.703992 2.816796 0.0 1.0 910.0 6
13 1 46.977274 13.852891 0.0 1.0 910.0 6
14 1 14.752644 38.344051 0.0 1.0 910.0 6
15 1 10.038524 0.999725 0.0 1.0 910.0 6
16 1 31.416571 10.694399 0.0 1.0 910.0 6
17 1 26.379704 25.022425 0.0 1.0 910.0 6
18 1 6.2415 9.655924 0.0 1.0 910.0 6
19 1 10.29774 44.478192 0.0 1.0 910.0 6
20 1 10.842357 15.387948 0.0 1.0 910.0 6
21 1 8.026605 33.635113 0.0 1.0 910.0 6
22 1 7.785982 8.053832 0.0 1.0 910.0 6
23 1 7.728193 4.10892 0.0 1.0 910.0 6
24 1 39.63582 16.074757 0.0 1.0 910.0 6
25 1 23.083504 9.110064 0.0 1.0 910.0 6
26 1 49.710607 5.357046 0.0 1.0 910.0 6
27 1 38.765656 39.297144 0.0 1.0 910.0 6
28 1 37.96984 21.408684 0.0 1.0 910.0 6
29 1 23.774445 43.601467 0.0 1.0 910.0 6
30 1 25.589796 44.12076 0.0 1.0 910.0 6
31 1 36.226072 38.123654 0.0 1.0 910.0 6
32 1 23.79332 5.061863 0.0 1.0 910.0 6
33 1 14.937733 17.999965 0.0 1.0 910.0 6
34 1 -0.0 28.341031 0.0 1.0 910.0 6
35 1 33.405525 26.623364 0.0 1.0 910.0 6
36 1 49.276816 0.811624 0.0 1.0 910.0 6
37 1 13.64988 8.864278 0.0 1.0 910.0 6
38 1 33.410739 46.327199 0.0 1.0 910.0 6
39 1 16.827898 11.003064 0.0 1.0 910.0 6
40 1 6.042768 -0.0 0.0 1.0 910.0 6
41 1 37.814714 3.625931 0.0 1.0 910.0 6
42 1 7.117437 1.85118 0.0 1.0 910.0 6
43 1 18.159741 28.931142 0.0 1.0 910.0 6
44 1 43.238787 1.733011 0.0 1.0 910.0 6
45 1 29.162835 3.553291 0.0 1.0 910.0 6
46 1 -0.0 38.814718 0.0 1.0 910.0 6
47 1 22.695037 21.341345 0.0 1.0 910.0 6
48 1 49.979408 24.735789 0.0 1.0 910.0 6
49 1 46.343248 22.853402 0.0 1.0 910.0 6
50 1 14.852719 43.941776 0.0 1.0 910.0 6
51 1 34.478349 30.792394 0.0 1.0 910.0 6
52 1 15.203434 26.861195 0.0 1.0 910.0 6
53 1 43.649322 37.311383 0.0 1.0 910.0 6
54 1 3.333962 0.857027 0.0 1.0 910.0 6
55 1 39.952374 46.408932 0.0 1.0 910.0 6
56 1 17.924965 3.757774 0.0 1.0 910.0 6
57 1 6.919321 15.686677 0.0 1.0 910.0 6
58 1 24.820201 32.881057 0.0 1.0 910.0 6
59 1 10.746042 22.949753 0.0 1.0 910.0 6
60 1 22.009603 9.277545 0.0 1.0 910.0 6
61 1 18.077358 9.717643 0.0 1.0 910.0 6
62 1 5.453869 2.807327 0.0 1.0 910.0 6
63 1 24.739278 27.33061 0.0 1.0 910.0 6
64 1 13.063228 5.719343 0.0 1.0 910.0 6
65 1 33.608926 27.602535 0.0 1.0 910.0 6
66 1 12.84528 36.321939 0.0 1.0 910.0 6
67 1 36.102258 19.376459 0.0 1.0 910.0 6
68 1 50.000015 39.149511 0.0 1.0 910.0 6
69 1 37.60914 37.476593 0.0 1.0 910.0 6
70 1 3.891936 -0.0 0.0 1.0 910.0 6
71 1 16.603507 31.177802 0.0 1.0 910.0 6
72 1 26.017186 25.954342 0.0 1.0 910.0 6
73 1 23.479138 44.646093 0.0 1.0 910.0 6
74 1 35.79254 37.125609 0.0 1.0 910.0 6
75 1 45.569167 15.855475 0.0 1.0 910.0 6
76 1 4.993405 28.740929 0.0 1.0 910.0 6
77 1 13.423404 16.861573 0.0 1.0 910.0 6
78 1 10.144283 9.637575 0.0 1.0 910.0 6
79 1 47.612649 9.19113 0.0 1.0 910.0 6
80 1 -0.0 15.317846 0.0 1.0 910.0 6
81 1 17.859226 40.267585 0.0 1.0 910.0 6
82 1 39.207209 15.073966 0.0 1.0 910.0 6
83 1 34.063172 0.857307 0.0 1.0 910.0 6
84 1 -0.0 14.226171 0.0 1.0 910.0 6
85 1 11.228173 13.279487 0.0 1.0 910.0 6
86 1 11.182271 42.815714 0.0 1.0 910.0 6
87 1 5.170242 14.556873 0.0 1.0 910.0 6
88 1 45.482864 29.906689 0.0 1.0 910.0 6
89 1 48.135063 29.380755 0.0 1.0 910.0 6
90 1 23.951978 30.180946 0.0 1.0 910.0 6
91 1 45.421266 1.720284 0.0 1.0 910.0 6
92 1 9.826896 18.078803 0.0 1.0 910.0 6
93 1 10.971369 0.343284 0.0 1.0 910.0 6
94 1 49.999416 33.716841 0.0 1.0 910.0 6
95 1 41.570466 23.427808 0.0 1.0 910.0 6
96 1 47.353211 16.926781 0.0 1.0 910.0 6
97 1 39.397783 8.362471 0.0 1.0 910.0 6
98 1 0.0 6.77406 0.0 1.0 910.0 6
99 1 15.836331 19.985773 0.0 1.0 910.0 6
100 1 39.631643 41.441341 0.0 1.0 910.0 6
101 1 12.232628 45.499604 0.0 1.0 910.0 6
102 1 13.636799 32.390678 0.0 1.0 910.0 6
103 1 3.636122 14.955728 0.0 1.0 910.0 6
104 1 -2e-06 3.86061 0.0 1.0 910.0 6
105 1 45.476389 28.826163 0.0 1.0 910.0 6
106 1 0.000971 49.999191 0.0 1.0 910.0 6
107 1 8.449171 49.999119 0.0 1.0 910.0 6
108 1 27.14907 15.116722 0.0 1.0 910.0 6
109 1 5.125545 29.817987 0.0 1.0 910.0 6
110 1 -1.6e-05 10.882612 0.0 1.0 910.0 6
111 1 50.000012 16.370603 0.0 1.0 910.0 6
112 1 9.930298 20.941255 0.0 1.0 910.0 6
113 1 33.48073 41.491268 0.0 1.0 910.0 6
114 1 49.160361 37.520078 0.0 1.0 910.0 6
115 1 2.349794 27.414299 0.0 1.0 910.0 6
116 1 37.051677 10.101125 0.0 1.0 910.0 6
117 1 21.90448 5.068834 0.0 1.0 910.0 6
118 1 30.75752 14.088638 0.0 1.0 910.0 6
119 1 18.202755 2.701129 0.0 1.0 910.0 6
120 1 38.337679 6.451604 0.0 1.0 910.0 6
121 1 17.171664 7.619076 0.0 1.0 910.0 6
122 1 14.854727 4.534074 0.0 1.0 910.0 6
123 1 1.874845 7.43254 0.0 1.0 910.0 6
124 1 43.768859 6.416959 0.0 1.0 910.0 6
125 1 42.680506 8.316303 0.0 1.0 910.0 6
126 1 43.292399 17.440034 0.0 1.0 910.0 6
127 1 32.70434 39.479836 0.0 1.0 910.0 6
128 1 45.994968 12.00036 0.0 1.0 910.0 6
129 1 7.520889 6.998983 0.0 1.0 910.0 6
130 1 1.919778 3.43624 0.0 1.0 910.0 6
131 1 13.016025 47.249517 0.0 1.0 910.0 6
132 1 49.128628 45.019002 0.0 1.0 910.0 6
133 1 32.183155 18.098705 0.0 1.0 910.0 6
134 1 43.839722 40.200455 0.0 1.0 910.0 6
135 1 0.461389 1.962162 0.0 1.0 910.0 6
136 1 45.469732 27.740582 0.0 1.0 910.0 6
137 1 50.000002 8.215719 0.0 1.0 910.0 6
138 1 14.501334 17.003458 0.0 1.0 910.0 6
139 1 26.836037 10.049619 0.0 1.0 910.0 6
140 1 46.35023 23.931645 0.0 1.0 910.0 6
141 1 1.732168 -1e-06 0.0 1.0 910.0 6
142 1 15.782372 11.262619 0.0 1.0 910.0 6
143 1 39.442408 2.687731 0.0 1.0 910.0 6
144 1 27.573171 17.949469 0.0 1.0 910.0 6
145 1 9.442372 17.06529 0.0 1.0 910.0 6
146 1 47.378585 38.578089 0.0 1.0 910.0 6
147 1 3.582068 49.836365 0.0 1.0 910.0 6
148 1 27.728478 20.226359 0.0 1.0 910.0 6
149 1 31.408658 1.639558 0.0 1.0 910.0 6
150 1 32.392909 32.934398 0.0 1.0 910.0 6
151 1 45.455667 9.182586 0.0 1.0 910.0 6
152 1 6.987585 30.924714 0.0 1.0 910.0 6
153 1 27.879801 42.451886 0.0 1.0 910.0 6
154 1 28.326813 35.925658 0.0 1.0 910.0 6
155 1 32.311286 46.301027 0.0 1.0 910.0 6
156 1 19.232792 23.289841 0.0 1.0 910.0 6
157 1 37.952539 25.308131 0.0 1.0 910.0 6
158 1 17.139323 23.922277 0.0 1.0 910.0 6
159 1 6.158875 24.189623 0.0 1.0 910.0 6
160 1 11.594895 17.42594 0.0 1.0 910.0 6
161 1 38.510033 29.458333 0.0 1.0 910.0 6
162 1 1.999626 36.890659 0.0 1.0 910.0 6
163 1 26.910702 34.794235 0.0 1.0 910.0 6
164 1 6.187527 34.778755 0.0 1.0 910.0 6
165 1 39.620106 39.816603 0.0 1.0 910.0 6
166 1 -0.0 8.956831 0.0 1.0 910.0 6
167 1 44.447541 22.84404 0.0 1.0 910.0 6
168 1 49.157065 16.908581 0.0 1.0 910.0 6
169 1 1.749695 42.009 0.0 1.0 910.0 6
170 1 45.47719 36.415215 0.0 1.0 910.0 6
171 1 25.127118 26.409438 0.0 1.0 910.0 6
172 1 31.278735 5.465387 0.0 1.0 910.0 6
173 1 9.395673 49.501029 0.0 1.0 910.0 6
174 1 39.690864 38.819142 0.0 1.0 910.0 6
175 1 24.864835 0.017165 0.0 1.0 910.0 6
176 1 4.137731 19.083251 0.0 1.0 910.0 6
177 1 37.739793 42.147685 0.0 1.0 910.0 6
178 1 32.898096 45.362676 0.0 1.0 910.0 6
179 1 32.514246 26.170094 0.0 1.0 910.0 6
180 1 44.217793 19.60304 0.0 1.0 910.0 6
181 1 26.520464 4.522074 0.0 1.0 910.0 6
182 1 47.289968 24.469598 0.0 1.0 910.0 6
183 1 37.410759 23.132152 0.0 1.0 910.0 6
184 1 45.436987 25.561128 0.0 1.0 910.0 6
185 1 17.651274 28.070172 0.0 1.0 910.0 6
186 1 29.419674 30.696429 0.0 1.0 910.0 6
187 1 35.14712 25.392137 0.0 1.0 910.0 6
188 1 24.612983 12.148433 0.0 1.0 910.0 6
189 1 34.542207 5.483415 0.0 1.0 910.0 6
190 1 23.417549 13.968348 0.0 1.0 910.0 6
191 1 46.502205 12.934032 0.0 1.0 910.0 6
192 1 49.11859 24.226895 0.0 1.0 910.0 6
193 1 50.000012 45.509596 0.0 1.0 910.0 6
194 1 24.332198 41.507648 0.0 1.0 910.0 6
195 1 44.51488 26.110273 0.0 1.0 910.0 6
196 1 28.588938 26.325649 0.0 1.0 910.0 6
197 1 14.788154 3.458867 0.0 1.0 910.0 6
198 1 28.524293 41.635562 0.0 1.0 910.0 6
199 1 46.510136 39.073825 0.0 1.0 910.0 6
200 1 45.952735 6.38476 0.0 1.0 910.0 6
201 1 19.778635 36.870971 0.0 1.0 910.0 6
202 1 43.644698 18.408616 0.0 1.0 910.0 6
203 1 29.440096 11.304254 0.0 1.0 910.0 6
204 1 47.069227 49.255822 0.0 1.0 910.0 6
205 1 43.597032 29.924852 0.0 1.0 910.0 6
206 1 10.384357 47.767064 0.0 1.0 910.0 6
207 1 7.500806 13.817682 0.0 1.0 910.0 6
208 1 10.805448 8.84807 0.0 1.0 910.0 6
209 1 18.903296 29.599793 0.0 1.0 910.0 6
210 1 50.000014 30.716871 0.0 1.0 910.0 6
211 1 30.737194 25.25305 0.0 1.0 910.0 6
212 1 45.464144 38.590079 0.0 1.0 910.0 6
213 1 27.837665 12.342329 0.0 1.0 910.0 6
214 1 19.6845 40.765458 0.0 1.0 910.0 6
215 1 37.501296 11.081573 0.0 1.0 910.0 6
216 1 9.493758 48.303113 0.0 1.0 910.0 6
217 1 47.329204 19.078253 0.0 1.0 910.0 6
218 1 47.576013 5.434574 0.0 1.0 910.0 6
219 1 30.957287 12.68504 0.0 1.0 910.0 6
220 1 17.997398 13.622949 0.0 1.0 910.0 6
221 1 13.001034 30.368153 0.0 1.0 910.0 6
222 1 44.382429 17.552198 0.0 1.0 910.0 6
223 1 24.076106 35.751179 0.0 1.0 910.0 6
224 1 39.111136 35.173337 0.0 1.0 910.0 6
225 1 34.136717 12.611194 0.0 1.0 910.0 6
226 1 26.550624 16.025364 0.0 1.0 910.0 6
227 1 24.726068 2.410822 0.0 1.0 910.0 6
228 1 37.011229 31.900079 0.0 1.0 910.0 6
229 1 29.080033 28.213185 0.0 1.0 910.0 6
230 1 5.446982 6.466905 0.0 1.0 910.0 6
231 1 26.576066 3.44106 0.0 1.0 910.0 6
232 1 20.110849 8.226441 0.0 1.0 910.0 6
233 1 35.650984 44.645297 0.0 1.0 910.0 6
234 1 10.339716 29.583022 0.0 1.0 910.0 6
235 1 36.924137 16.57427 0.0 1.0 910.0 6
236 1 2.476201 34.880432 0.0 1.0 910.0 6
237 1 26.624238 7.718125 0.0 1.0 910.0 6
238 1 30.904743 44.751101 0.0 1.0 910.0 6
239 1 28.694752 19.969084 0.0 1.0 910.0 6
240 1 42.179763 42.732556 0.0 1.0 910.0 6
241 1 40.247243 29.855636 0.0 1.0 910.0 6
242 1 3.591896 22.826884 0.0 1.0 910.0 6
243 1 4.955307 12.272853 0.0 1.0 910.0 6
244 1 44.799993 16.583987 0.0 1.0 910.0 6
245 1 -0.0 35.642983 0.0 1.0 910.0 6
246 1 44.402069 11.015175 0.0 1.0 910.0 6
247 1 29.331323 43.657624 0.0 1.0 910.0 6
248 1 41.15543 41.014859 0.0 1.0 910.0 6
249 1 21.326735 38.400409 0.0 1.0 910.0 6
250 1 23.419316 29.337786 0.0 1.0 910.0 6
251 1 18.199789 45.992714 0.0 1.0 910.0 6
252 1 1.80469 46.37919 0.0 1.0 910.0 6
253 1 25.966094 40.28496 0.0 1.0 910.0 6
254 1 22.010205 50.000003 0.0 1.0 910.0 6
255 1 31.625861 25.711227 0.0 1.0 910.0 6
256 1 33.85381 42.453126 0.0 1.0 910.0 6
257 1 32.705777 14.415004 0.0 1.0 910.0 6
258 1 41.344947 15.335631 0.0 1.0 910.0 6
259 1 22.675871 37.075927 0.0 1.0 910.0 6
260 1 30.265748 40.968809 0.0 1.0 910.0 6
261 1 25.579606 33.531647 0.0 1.0 910.0 6
262 1 36.1979 2.67744 0.0 1.0 910.0 6
263 1 33.548393 -4e-06 0.0 1.0 910.0 6
264 1 35.173495 19.006162 0.0 1.0 910.0 6
265 1 14.693687 2.421976 0.0 1.0 910.0 6
266 1 26.714984 18.698057 0.0 1.0 910.0 6
267 1 28.428159 8.575852 0.0 1.0 910.0 6
268 1 9.026996 4.401862 0.0 1.0 910.0 6
269 1 8.654571 27.554943 0.0 1.0 910.0 6
270 1 45.459239 17.966992 0.0 1.0 910.0 6
271 1 9.503635 29.034484 0.0 1.0 910.0 6
272 1 14.261395 -1.7e-05 0.0 1.0 910.0 6
273 1 49.981184 28.706044 0.0 1.0 910.0 6
274 1 44.869846 47.391935 0.0 1.0 910.0 6
275 1 33.866938 14.47387 0.0 1.0 910.0 6
276 1 18.079511 50.000003 0.0 1.0 910.0 6
277 1 13.795897 14.63646 0.0 1.0 910.0 6
278 1 38.482865 44.398654 0.0 1.0 910.0 6
279 1 32.295445 8.896976 0.0 1.0 910.0 6
280 1 46.435522 32.623822 0.0 1.0 910.0 6
281 1 19.003909 32.233177 0.0 1.0 910.0 6
282 1 25.202359 11.232609 0.0 1.0 910.0 6
283 1 5.217137 19.238091 0.0 1.0 910.0 6
284 1 9.781672 31.3944 0.0 1.0 910.0 6
285 1 1.440002 22.399314 0.0 1.0 910.0 6
286 1 11.229444 43.903982 0.0 1.0 910.0 6
287 1 38.660607 20.634602 0.0 1.0 910.0 6
288 1 33.739367 20.397201 0.0 1.0 910.0 6
289 1 6.934768 29.750429 0.0 1.0 910.0 6
290 1 43.522488 24.490862 0.0 1.0 910.0 6
291 1 43.212012 50.000005 0.0 1.0 910.0 6
292 1 20.367335 18.468597 0.0 1.0 910.0 6
293 1 0.891172 35.096618 0.0 1.0 910.0 6
294 1 11.133262 41.72275 0.0 1.0 910.0 6
295 1 33.98255 45.420182 0.0 1.0 910.0 6
296 1 29.234378 21.749721 0.0 1.0 910.0 6
297 1 37.164198 35.750748 0.0 1.0 910.0 6
298 1 44.576365 32.621951 0.0 1.0 910.0 6
299 1 29.519487 20.542698 0.0 1.0 910.0 6
300 1 3.205005 38.610985 0.0 1.0 910.0 6
301 1 22.876841 49.501066 0.0 1.0 910.0 6
302 1 31.110202 21.662162 0.0 1.0 910.0 6
303 1 12.099429 42.236401 0.0 1.0 910.0 6
304 1 49.160401 38.606343 0.0 1.0 910.0 6
305 1 19.258707 35.074024 0.0 1.0 910.0 6
306 1 37.532053 15.780329 0.0 1.0 910.0 6
307 1 8.518132 47.783932 0.0 1.0 910.0 6
308 1 28.458694 47.381134 0.0 1.0 910.0 6
309 1 26.634352 39.438691 0.0 1.0 910.0 6
310 1 30.00841 46.479128 0.0 1.0 910.0 6
311 1 25.095886 13.11853 0.0 1.0 910.0 6
312 1 24.634057 1.415092 0.0 1.0 910.0 6
313 1 47.000223 10.134176 0.0 1.0 910.0 6
314 1 28.680836 34.092407 0.0 1.0 910.0 6
315 1 42.742154 39.992979 0.0 1.0 910.0 6
316 1 1.810779 18.607379 0.0 1.0 910.0 6
317 1 35.926373 39.984452 0.0 1.0 910.0 6
318 1 3.401953 35.3872 0.0 1.0 910.0 6
319 1 44.80108 13.837517 0.0 1.0 910.0 6
320 1 47.317636 20.159852 0.0 1.0 910.0 6
321 1 7.016919 8.838546 0.0 1.0 910.0 6
322 1 10.910858 35.18084 0.0 1.0 910.0 6
323 1 5.755485 23.167506 0.0 1.0 910.0 6
324 1 49.121373 12.545295 0.0 1.0 910.0 6
325 1 25.537371 31.041604 0.0 1.0 910.0 6
326 1 16.809595 40.547645 0.0 1.0 910.0 6
327 1 11.88917 0.998028 0.0 1.0 910.0 6
328 1 3.112899 8.791767 0.0 1.0 910.0 6
329 1 24.688207 23.572065 0.0 1.0 910.0 6
330 1 49.132233 43.994272 0.0 1.0 910.0 6
331 1 41.832997 21.029554 0.0 1.0 910.0 6
332 1 1.761636 48.698432 0.0 1.0 910.0 6
333 1 2.702912 15.515976 0.0 1.0 910.0 6
334 1 48.165217 30.464199 0.0 1.0 910.0 6
335 1 44.368402 41.049255 0.0 1.0 910.0 6
336 1 0.874626 12.539412 0.0 1.0 910.0 6
337 1 34.431155 8.440752 0.0 1.0 910.0 6
338 1 42.683332 4.556106 0.0 1.0 910.0 6
339 1 12.743326 31.334294 0.0 1.0 910.0 6
340 1 29.533897 47.359354 0.0 1.0 910.0 6
341 1 20.818849 9.632227 0.0 1.0 910.0 6
342 1 6.149814 26.192852 0.0 1.0 910.0 6
343 1 38.289847 49.163948 0.0 1.0 910.0 6
344 1 41.717013 36.345176 0.0 1.0 910.0 6
345 1 39.845771 14.20172 0.0 1.0 910.0 6
346 1 31.672447 26.709742 0.0 1.0 910.0 6
347 1 47.054703 2.645911 0.0 1.0 910.0 6
348 1 19.751933 33.105117 0.0 1.0 910.0 6
349 1 17.145871 46.262767 0.0 1.0 910.0 6
350 1 29.336783 15.190828 0.0 1.0 910.0 6
351 1 4.624234 44.654969 0.0 1.0 910.0 6
352 1 48.174128 12.034144 0.0 1.0 910.0 6
353 1 26.86486 42.329834 0.0 1.0 910.0 6
354 1 32.321332 28.573588 0.0 1.0 910.0 6
355 1 40.571258 36.59942 0.0 1.0 910.0 6
356 1 28.371483 11.42906 0.0 1.0 910.0 6
357 1 27.710655 23.829845 0.0 1.0 910.0 6
358 1 26.436388 41.232896 0.0 1.0 910.0 6
359 1 16.209936 7.111513 0.0 1.0 910.0 6
360 1 50.00001 35.912885 0.0 1.0 910.0 6
361 1 16.812843 15.340419 0.0 1.0 910.0 6
362 1 13.853641 17.868769 0.0 1.0 910.0 6
363 1 21.92365 6.141307 0.0 1.0 910.0 6
364 1 47.292774 28.841729 0.0 1.0 910.0 6
365 1 0.908176 48.127344 0.0 1.0 910.0 6
366 1 12.293257 29.661893 0.0 1.0 910.0 6
367 1 40.486341 49.160468 0.0 1.0 910.0 6
368 1 2.433183 33.710981 0.0 1.0 910.0 6
369 1 13.038234 15.844697 0.0 1.0 910.0 6
370 1 4.15887 9.082732 0.0 1.0 910.0 6
371 1 47.002657 4.506994 0.0 1.0 910.0 6
372 1 45.4282 -2.1e-05 0.0 1.0 910.0 6
373 1 22.82661 0.209346 0.0 1.0 910.0 6
374 1 34.465785 38.814045 0.0 1.0 910.0 6
375 1 41.548819 13.478487 0.0 1.0 910.0 6
376 1 39.209094 43.430549 0.0 1.0 910.0 6
377 1 19.992619 24.074237 0.0 1.0 910.0 6
378 1 25.959477 22.229836 0.0 1.0 910.0 6
379 1 22.908414 19.351687 0.0 1.0 910.0 6
380 1 4.675437 23.001923 0.0 1.0 910.0 6
381 1 21.665216 44.135425 0.0 1.0 910.0 6
382 1 1.705416 39.877726 0.0 1.0 910.0 6
383 1 0.866084 0.499895 0.0 1.0 910.0 6
384 1 2.474451 35.93483 0.0 1.0 910.0 6
385 1 31.59207 8.066199 0.0 1.0 910.0 6
386 1 24.708196 3.436543 0.0 1.0 910.0 6
387 1 28.074474 28.161924 0.0 1.0 910.0 6
388 1 16.651754 17.226752 0.0 1.0 910.0 6
389 1 17.927889 15.487573 0.0 1.0 910.0 6
390 1 32.466052 17.140182 0.0 1.0 910.0 6
391 1 5.4981 17.331173 0.0 1.0 910.0 6
392 1 28.613585 20.96579 0.0 1.0 910.0 6
393 1 20.752399 0.027911 0.0 1.0 910.0 6
394 1 8.031206 5.157744 0.0 1.0 910.0 6
395 1 37.813426 32.632806 0.0 1.0 910.0 6
396 1 13.878475 4.053205 0.0 1.0 910.0 6
397 1 12.170601 47.889129 0.0 1.0 910.0 6
398 1 42.12958 48.300724 0.0 1.0 910.0 6
399 1 22.769145 24.157702 0.0 1.0 910.0 6
400 1 19.56787 14.648016 0.0 1.0 910.0 6
401 1 24.158259 19.662779 0.0 1.0 910.0 6
402 1 10.316614 50.0 0.0 1.0 910.0 6
403 1 44.975697 41.843721 0.0 1.0 910.0 6
404 1 5.498085 0.890871 0.0 1.0 910.0 6
405 1 48.002596 4.496044 0.0 1.0 910.0 6
406 1 3.324018 24.711268 0.0 1.0 910.0 6
407 1 8.689258 15.03513 0.0 1.0 910.0 6
408 1 22.453425 12.037889 0.0 1.0 910.0 6
409 1 12.324851 27.558783 0.0 1.0 910.0 6
410 1 47.386278 46.385348 0.0 1.0 910.0 6
411 1 49.697062 9.168722 0.0 1.0 910.0 6
412 1 50.000003 43.49734 0.0 1.0 910.0 6
413 1 12.469451 28.630043 0.0 1.0 910.0 6
414 1 8.341891 10.149882 0.0 1.0 910.0 6
415 1 22.032242 17.55391 0.0 1.0 910.0 6
416 1 10.056049 37.925406 0.0 1.0 910.0 6
417 1 41.564487 24.545979 0.0 1.0 910.0 6
418 1 29.786999 44.624677 0.0 1.0 910.0 6
419 1 0.056016 16.407531 0.0 1.0 910.0 6
420 1 38.879859 36.231798 0.0 1.0 910.0 6
421 1 15.048447 10.468489 0.0 1.0 910.0 6
422 1 46.363918 20.693446 0.0 1.0 910.0 6
423 1 17.693278 37.421626 0.0 1.0 910.0 6
424 1 4.368107 2.772598 0.0 1.0 910.0 6
425 1 22.686425 16.74552 0.0 1.0 910.0 6
426 1 37.409368 41.146964 0.0 1.0 910.0 6
427 1 35.972807 32.217912 0.0 1.0 910.0 6
428 1 39.954808 7.412997 0.0 1.0 910.0 6
429 1 15.614482 44.711 0.0 1.0 910.0 6
430 1 26.344417 32.880956 0.0 1.0 910.0 6
431 1 12.09659 21.2493 0.0 1.0 910.0 6
432 1 0.0 31.704817 0.0 1.0 910.0 6
433 1 33.877785 43.452814 0.0 1.0 910.0 6
434 1 34.582884 1.732254 0.0 1.0 910.0 6
435 1 19.075144 5.629728 0.0 1.0 910.0 6
436 1 10.077159 23.817693 0.0 1.0 910.0 6
437 1 41.102978 22.289473 0.0 1.0 910.0 6
438 1 13.144195 43.857205 0.0 1.0 910.0 6
439 1 42.665326 49.162671 0.0 1.0 910.0 6
440 1 24.725727 18.751082 0.0 1.0 910.0 6
441 1 38.121479 35.461664 0.0 1.0 910.0 6
442 1 21.985206 8.252508 0.0 1.0 910.0 6
443 1 2.037066 13.562359 0.0 1.0 910.0 6
444 1 49.121565 29.216917 0.0 1.0 910.0 6
445 1 3.543707 40.869309 0.0 1.0 910.0 6
446 1 41.036145 48.2949 0.0 1.0 910.0 6
447 1 33.122461 19.578904 0.0 1.0 910.0 6
448 1 39.998361 -3e-06 0.0 1.0 910.0 6
449 1 49.165641 34.268929 0.0 1.0 910.0 6
450 1 44.31771 48.313982 0.0 1.0 910.0 6
451 1 39.225841 10.301993 0.0 1.0 910.0 6
452 1 4.235841 4.870708 0.0 1.0 910.0 6
453 1 48.262913 19.621494 0.0 1.0 910.0 6
454 1 21.760412 27.472863 0.0 1.0 910.0 6
455 1 16.67322 37.640735 0.0 1.0 910.0 6
456 1 36.929865 27.987852 0.0 1.0 910.0 6
457 1 27.62335 36.751553 0.0 1.0 910.0 6
458 1 31.224288 30.201906 0.0 1.0 910.0 6
459 1 32.413167 41.318534 0.0 1.0 910.0 6
460 1 46.401335 50.000035 0.0 1.0 910.0 6
461 1 5.234453 34.250386 0.0 1.0 910.0 6
462 1 31.927714 37.475052 0.0 1.0 910.0 6
463 1 47.345742 32.092503 0.0 1.0 910.0 6
464 1 39.969998 5.518579 0.0 1.0 910.0 6
465 1 9.666737 22.805038 0.0 1.0 910.0 6
466 1 43.650896 33.156165 0.0 1.0 910.0 6
467 1 21.492873 25.47271 0.0 1.0 910.0 6
468 1 11.011489 3.680999 0.0 1.0 910.0 6
469 1 19.188426 2.488233 0.0 1.0 910.0 6
470 1 1.965122 12.472951 0.0 1.0 910.0 6
471 1 9.447276 10.360732 0.0 1.0 910.0 6
472 1 30.965004 20.672811 0.0 1.0 910.0 6
473 1 10.515133 24.826192 0.0 1.0 910.0 6
474 1 14.920827 24.459382 0.0 1.0 910.0 6
475 1 49.002078 4.464268 0.0 1.0 910.0 6
476 1 31.725678 27.730613 0.0 1.0 910.0 6
477 1 -0.0 46.405119 0.0 1.0 910.0 6
478 1 42.53073 24.024611 0.0 1.0 910.0 6
479 1 2.325805 9.55316 0.0 1.0 910.0 6
480 1 18.492092 21.10604 0.0 1.0 910.0 6
481 1 13.806793 2.986147 0.0 1.0 910.0 6
482 1 42.151067 1.738595 0.0 1.0 910.0 6
483 1 40.806569 27.720654 0.0 1.0 910.0 6
484 1 28.664896 17.914889 0.0 1.0 910.0 6
485 1 11.653243 8.105685 0.0 1.0 910.0 6
486 1 19.670676 -1e-06 0.0 1.0 910.0 6
487 1 3.363256 34.280349 0.0 1.0 910.0 6
488 1 20.610493 44.405458 0.0 1.0 910.0 6
489 1 44.334097 12.863499 0.0 1.0 910.0 6
490 1 24.423701 21.860896 0.0 1.0 910.0 6
491 1 32.497184 5.209293 0.0 1.0 910.0 6
492 1 41.578311 18.192034 0.0 1.0 910.0 6
493 1 42.789356 11.785141 0.0 1.0 910.0 6
494 1 31.315811 -4e-06 0.0 1.0 910.0 6
495 1 1.817892 29.459295 0.0 1.0 910.0 6
496 1 28.103378 1.719068 0.0 1.0 910.0 6
497 1 39.725436 20.860178 0.0 1.0 910.0 6
498 1 34.54847 13.522472 0.0 1.0 910.0 6
499 1 33.245142 15.256991 0.0 1.0 910.0 6
500 1 18.917399 39.996617 0.0 1.0 910.0 6
501 1 8.584933 22.641486 0.0 1.0 910.0 6
502 1 13.785674 35.646853 0.0 1.0 910.0 6
503 1 46.472763 44.588749 0.0 1.0 910.0 6
504 1 38.996601 16.945444 0.0 1.0 910.0 6
505 1 10.522121 17.2419 0.0 1.0 910.0 6
506 1 6.119258 32.591856 0.0 1.0 910.0 6
507 1 38.042682 31.579978 0.0 1.0 910.0 6
508 1 28.560634 22.687279 0.0 1.0 910.0 6
509 1 41.587248 47.364333 0.0 1.0 910.0 6
510 1 18.970789 49.546548 0.0 1.0 910.0 6
511 1 35.098465 24.3934 0.0 1.0 910.0 6
512 1 47.208967 26.572625 0.0 1.0 910.0 6
513 1 1.044521 39.003299 0.0 1.0 910.0 6
514 1 29.218533 1.700892 0.0 1.0 910.0 6
515 1 34.90827 16.287605 0.0 1.0 910.0 6
516 1 30.552153 39.129203 0.0 1.0 910.0 6
517 1 24.526837 28.307532 0.0 1.0 910.0 6
518 1 14.420413 12.555497 0.0 1.0 910.0 6
519 1 44.868341 2.658193 0.0 1.0 910.0 6
520 1 14.690737 33.997729 0.0 1.0 910.0 6
521 1 30.326073 22.281653 0.0 1.0 910.0 6
522 1 32.039491 22.031296 0.0 1.0 910.0 6
523 1 43.445022 39.281666 0.0 1.0 910.0 6
524 1 32.463965 25.16599 0.0 1.0 910.0 6
525 1 5.460476 27.023907 0.0 1.0 910.0 6
526 1 47.617146 1.722248 0.0 1.0 910.0 6
527 1 45.431123 20.133648 0.0 1.0 910.0 6
528 1 13.914043 20.576226 0.0 1.0 910.0 6
529 1 7.364921 41.839354 0.0 1.0 910.0 6
530 1 6.589655 0.898256 0.0 1.0 910.0 6
531 1 4.384293 38.135288 0.0 1.0 910.0 6
532 1 13.737639 22.445372 0.0 1.0 910.0 6
533 1 23.684164 21.189939 0.0 1.0 910.0 6
534 1 9.133792 38.500921 0.0 1.0 910.0 6
535 1 11.217879 16.406897 0.0 1.0 910.0 6
536 1 4.313767 34.815208 0.0 1.0 910.0 6
537 1 23.938769 46.472911 0.0 1.0 910.0 6
538 1 19.992089 10.194717 0.0 1.0 910.0 6
539 1 3.394454 5.893064 0.0 1.0 910.0 6
540 1 5.998836 12.514521 0.0 1.0 910.0 6
541 1 7.616167 14.857852 0.0 1.0 910.0 6
542 1 41.053461 -1.6e-05 0.0 1.0 910.0 6
543 1 37.715459 18.699332 0.0 1.0 910.0 6
544 1 38.455194 23.45813 0.0 1.0 910.0 6
545 1 0.903892 26.703613 0.0 1.0 910.0 6
546 1 25.458282 15.965343 0.0 1.0 910.0 6
547 1 10.323693 48.970811 0.0 1.0 910.0 6
548 1 48.272609 43.483345 0.0 1.0 910.0 6
549 1 34.577916 -1.5e-05 0.0 1.0 910.0 6
550 1 49.088519 13.630081 0.0 1.0 910.0 6
551 1 1.874542 19.705374 0.0 1.0 910.0 6
552 1 45.436371 42.773825 0.0 1.0 910.0 6
553 1 11.0125 21.103881 0.0 1.0 910.0 6
554 1 10.653982 30.905464 0.0 1.0 910.0 6
555 1 8.805707 29.7506 0.0 1.0 910.0 6
556 1 24.355533 31.095454 0.0 1.0 910.0 6
557 1 21.622394 33.447075 0.0 1.0 910.0 6
558 1 35.139113 14.329361 0.0 1.0 910.0 6
559 1 23.35053 31.136768 0.0 1.0 910.0 6
560 1 5.426987 40.80654 0.0 1.0 910.0 6
561 1 30.413091 16.943714 0.0 1.0 910.0 6
562 1 45.504101 32.078483 0.0 1.0 910.0 6
563 1 27.007951 25.820631 0.0 1.0 910.0 6
564 1 12.63873 32.328801 0.0 1.0 910.0 6
565 1 30.424569 33.516535 0.0 1.0 910.0 6
566 1 45.41784 21.225439 0.0 1.0 910.0 6
567 1 27.388007 4.024791 0.0 1.0 910.0 6
568 1 -0.0 27.246986 0.0 1.0 910.0 6
569 1 35.909111 16.432995 0.0 1.0 910.0 6
570 1 33.603755 17.742968 0.0 1.0 910.0 6
571 1 35.722089 13.517247 0.0 1.0 910.0 6
572 1 48.250901 20.700354 0.0 1.0 910.0 6
573 1 4.653227 45.750456 0.0 1.0 910.0 6
574 1 26.529964 28.258874 0.0 1.0 910.0 6
575 1 1.445049 50.0 0.0 1.0 910.0 6
576 1 25.89777 42.075445 0.0 1.0 910.0 6
577 1 10.108268 4.295758 0.0 1.0 910.0 6
578 1 24.234183 25.494497 0.0 1.0 910.0 6
579 1 48.263578 41.318812 0.0 1.0 910.0 6
580 1 22.33425 13.906448 0.0 1.0 910.0 6
581 1 44.610228 31.564328 0.0 1.0 910.0 6
582 1 44.537646 29.374826 0.0 1.0 910.0 6
583 1 11.983091 4.173928 0.0 1.0 910.0 6
584 1 17.898104 22.000572 0.0 1.0 910.0 6
585 1 31.398121 17.454216 0.0 1.0 910.0 6
586 1 37.267238 4.561525 0.0 1.0 910.0 6
587 1 22.883561 32.099514 0.0 1.0 910.0 6
588 1 31.255025 22.651267 0.0 1.0 910.0 6
589 1 30.413473 43.808949 0.0 1.0 910.0 6
590 1 20.008303 5.072506 0.0 1.0 910.0 6
591 1 37.723463 28.719845 0.0 1.0 910.0 6
592 1 8.367854 43.443014 0.0 1.0 910.0 6
593 1 34.668011 20.767656 0.0 1.0 910.0 6
594 1 36.019418 45.786885 0.0 1.0 910.0 6
595 1 26.655025 14.154743 0.0 1.0 910.0 6
596 1 27.739009 14.209785 0.0 1.0 910.0 6
597 1 15.785676 30.602184 0.0 1.0 910.0 6
598 1 11.461572 28.063468 0.0 1.0 910.0 6
599 1 10.129414 40.10958 0.0 1.0 910.0 6
600 1 1.813157 6.38211 0.0 1.0 910.0 6
601 1 11.652886 32.49641 0.0 1.0 910.0 6
602 1 6.576673 17.53056 0.0 1.0 910.0 6
603 1 31.802927 45.330188 0.0 1.0 910.0 6
604 1 34.413214 17.156404 0.0 1.0 910.0 6
605 1 24.131979 26.488912 0.0 1.0 910.0 6
606 1 33.002881 37.646001 0.0 1.0 910.0 6
607 1 6.969537 4.891044 0.0 1.0 910.0 6
608 1 32.669881 16.074877 0.0 1.0 910.0 6
609 1 49.13374 32.216691 0.0 1.0 910.0 6
610 1 2.718366 43.619904 0.0 1.0 910.0 6
611 1 42.709756 32.636824 0.0 1.0 910.0 6
612 1 33.254651 23.623413 0.0 1.0 910.0 6
613 1 41.78323 32.145225 0.0 1.0 910.0 6
614 1 15.71728 21.880059 0.0 1.0 910.0 6
615 1 27.840395 46.482638 0.0 1.0 910.0 6
616 1 15.740166 34.524086 0.0 1.0 910.0 6
617 1 15.401092 32.559325 0.0 1.0 910.0 6
618 1 31.373983 3.566803 0.0 1.0 910.0 6
619 1 3.275066 2.743156 0.0 1.0 910.0 6
620 1 28.533158 29.050255 0.0 1.0 910.0 6
621 1 39.471279 44.549154 0.0 1.0 910.0 6
622 1 34.056752 9.463038 0.0 1.0 910.0 6
623 1 5.15702 30.961972 0.0 1.0 910.0 6
624 1 46.390583 46.477934 0.0 1.0 910.0 6
625 1 13.06882 18.604429 0.0 1.0 910.0 6
626 1 14.751523 11.532454 0.0 1.0 910.0 6
627 1 6.770909 11.676296 0.0 1.0 910.0 6
628 1 33.838492 35.118201 0.0 1.0 910.0 6
629 1 23.770085 16.812982 0.0 1.0 910.0 6
630 1 14.758533 41.438113 0.0 1.0 910.0 6
631 1 38.621949 33.367091 0.0 1.0 910.0 6
632 1 18.98009 3.476351 0.0 1.0 910.0 6
633 1 9.902855 33.574786 0.0 1.0 910.0 6
634 1 24.118634 11.188654 0.0 1.0 910.0 6
635 1 7.109262 34.207178 0.0 1.0 910.0 6
636 1 21.046333 23.778288 0.0 1.0 910.0 6
637 1 13.432842 23.980878 0.0 1.0 910.0 6
638 1 42.697046 45.553048 0.0 1.0 910.0 6
639 1 20.966724 5.60662 0.0 1.0 910.0 6
640 1 45.968253 47.398147 0.0 1.0 910.0 6
641 1 28.439317 30.500226 0.0 1.0 910.0 6
642 1 25.717712 18.629977 0.0 1.0 910.0 6
643 1 18.46672 34.320818 0.0 1.0 910.0 6
644 1 13.364977 12.801669 0.0 1.0 910.0 6
645 1 16.421969 9.215876 0.0 1.0 910.0 6
646 1 43.814482 41.881784 0.0 1.0 910.0 6
647 1 40.310556 10.349782 0.0 1.0 910.0 6
648 1 12.969312 4.648334 0.0 1.0 910.0 6
649 1 18.591021 12.705731 0.0 1.0 910.0 6
650 1 50.000007 12.0678 0.0 1.0 910.0 6
651 1 32.057418 7.156764 0.0 1.0 910.0 6
652 1 32.243968 35.65052 0.0 1.0 910.0 6
653 1 44.324833 7.335454 0.0 1.0 910.0 6
654 1 43.594724 28.839436 0.0 1.0 910.0 6
655 1 4.286078 14.089703 0.0 1.0 910.0 6
656 1 30.792764 7.393543 0.0 1.0 910.0 6
657 1 49.999879 34.820333 0.0 1.0 910.0 6
658 1 26.220297 9.193786 0.0 1.0 910.0 6
659 1 33.034876 4.36616 0.0 1.0 910.0 6
660 1 27.081685 1.676153 0.0 1.0 910.0 6
661 1 39.537448 29.119201 0.0 1.0 910.0 6
662 1 20.312782 45.449612 0.0 1.0 910.0 6
663 1 10.326897 45.566958 0.0 1.0 910.0 6
664 1 38.143219 10.201902 0.0 1.0 910.0 6
665 1 24.498485 14.030105 0.0 1.0 910.0 6
666 1 15.016844 27.843585 0.0 1.0 910.0 6
667 1 35.920926 10.012978 0.0 1.0 910.0 6
668 1 5.908171 4.61364 0.0 1.0 910.0 6
669 1 43.785719 45.549463 0.0 1.0 910.0 6
670 1 19.279001 18.391555 0.0 1.0 910.0 6
671 1 11.423351 22.10422 0.0 1.0 910.0 6
672 1 19.571832 21.212561 0.0 1.0 910.0 6
673 1 7.283316 39.661279 0.0 1.0 910.0 6
674 1 31.750652 47.247404 0.0 1.0 910.0 6
675 1 36.999041 21.169013 0.0 1.0 910.0 6
676 1 26.59692 31.183879 0.0 1.0 910.0 6
677 1 0.82761 6.212779 0.0 1.0 910.0 6
678 1 37.641224 24.177764 0.0 1.0 910.0 6
679 1 31.575126 24.708038 0.0 1.0 910.0 6
680 1 46.4341 33.710481 0.0 1.0 910.0 6
681 1 21.613641 37.356875 0.0 1.0 910.0 6
682 1 21.523829 48.03275 0.0 1.0 910.0 6
683 1 17.409387 21.031098 0.0 1.0 910.0 6
684 1 42.145111 3.619688 0.0 1.0 910.0 6
685 1 4.42537 10.143965 0.0 1.0 910.0 6
686 1 -2e-06 40.965008 0.0 1.0 910.0 6
687 1 5.174432 32.058304 0.0 1.0 910.0 6
688 1 40.228598 40.639428 0.0 1.0 910.0 6
689 1 8.889133 31.966328 0.0 1.0 910.0 6
690 1 29.930327 28.738394 0.0 1.0 910.0 6
691 1 11.930334 3.085799 0.0 1.0 910.0 6
692 1 43.769847 4.543055 0.0 1.0 910.0 6
693 1 8.436897 45.619501 0.0 1.0 910.0 6
694 1 10.023429 36.839615 0.0 1.0 910.0 6
695 1 29.326995 6.222903 0.0 1.0 910.0 6
696 1 22.207899 15.775377 0.0 1.0 910.0 6
697 1 -0.0 39.912697 0.0 1.0 910.0 6
698 1 34.843496 39.784475 0.0 1.0 910.0 6
699 1 48.166335 2.658416 0.0 1.0 910.0 6
700 1 14.149467 27.344003 0.0 1.0 910.0 6
701 1 41.779011 16.32998 0.0 1.0 910.0 6
702 1 34.70059 10.231461 0.0 1.0 910.0 6
703 1 36.59935 23.807948 0.0 1.0 910.0 6
704 1 6.152978 33.684848 0.0 1.0 910.0 6
705 1 21.87181 32.384109 0.0 1.0 910.0 6
706 1 12.397879 19.44954 0.0 1.0 910.0 6
707 1 24.666454 10.295925 0.0 1.0 910.0 6
708 1 50.000018 22.735904 0.0 1.0 910.0 6