header line input data

2557 atoms
1 atom types
6 bonds
1 bond types

-25.0 25.0 xlo xhi
-25.0 25.0 ylo yhi
-2.0 2.0 zlo zhi

Atoms

1 1 11.594146 9.394498 0.0 1.0 910.0 1
2 1 -13.570246 11.619728 0.0 1.0 910.0 1
3 1 -17.290278 -13.859473 0.0 1.0 910.0 1
4 1 9.160103 24.496803 0.0 1.0 910.0 1
5 1 -6.843248 -8.160672 0.0 1.0 910.0 1
6 1 7.614211 16.605141 0.0 1.0 910.0 1
7 1 1.125381 -0.981289 0.0 1.0 910.0 1
8 1 -11.46309 13.394528 0.0 1.0 910.0 1
9 1 -0.729895 -22.76321 0.0 1.0 910.0 1
10 1 -11.97017 -7.152035 0.0 1.0 910.0 1
11 1 -15.286811 -21.780717 0.0 1.0 910.0 1
12 1 -8.864868 -21.810421 0.0 1.0 910.0 1
13 1 21.510315 -10.749737 0.0 1.0 910.0 1
14 1 -9.728293 14.053542 0.0 1.0 910.0 1
15 1 -14.754832 -22.728991 0.0 1.0 910.0 1
16 1 4.594872 -13.861439 0.0 1.0 910.0 1
17 1 1.648599 0.89714 0.0 1.0 910.0 1
18 1 -18.665419 -15.048197 0.0 1.0 910.0 1
19 1 -14.441757 18.612038 0.0 1.0 910.0 1
20 1 -12.7212 -9.165772 0.0 1.0 910.0 1
21 1 -16.701972 7.758326 0.0 1.0 910.0 1
22 1 -16.913976 -17.046858 0.0 1.0 910.0 1
23 1 -16.897879 -20.828985 0.0 1.0 910.0 1
24 1 13.96288 -8.081253 0.0 1.0 910.0 1
25 1 -2.63108 -15.691697 0.0 1.0 910.0 1
26 1 24.164941 -19.189775 0.0 1.0 910.0 1
27 1 13.768071 13.505022 0.0 1.0 910.0 1
28 1 12.240529 -3.739825 0.0 1.0 910.0 1
29 1 -1.634884 18.904784 0.0 1.0 910.0 1
30 1 0.209282 18.722112 0.0 1.0 910.0 1
31 1 11.530748 12.22307 0.0 1.0 910.0 1
32 1 -0.762427 -18.95565 0.0 1.0 910.0 1
33 1 -9.949237 -6.671955 0.0 1.0 910.0 1
34 1 -24.495002 2.090355 0.0 1.0 910.0 1
35 1 8.68404 1.697395 0.0 1.0 910.0 1
36 1 23.758199 -23.724213 0.0 1.0 910.0 1
37 1 -10.802796 -16.277823 0.0 1.0 910.0 1
38 1 8.430275 20.932451 0.0 1.0 910.0 1
39 1 -8.251687 -13.621063 0.0 1.0 910.0 1
40 1 -18.548848 -23.654852 0.0 1.0 910.0 1
41 1 12.35356 -20.880398 0.0 1.0 910.0 1
42 1 -17.995268 -22.720303 0.0 1.0 910.0 1
43 1 -7.753331 2.900856 0.0 1.0 910.0 1
44 1 17.76059 -22.802768 0.0 1.0 910.0 1
45 1 4.737279 -20.720574 0.0 1.0 910.0 1
46 1 -24.494645 13.853941 0.0 1.0 910.0 1
47 1 -3.113059 -3.895245 0.0 1.0 910.0 1
48 1 24.494999 -0.093978 0.0 1.0 910.0 1
49 1 20.088045 -2.081442 0.0 1.0 910.0 1
50 1 -10.566986 18.924018 0.0 1.0 910.0 1
51 1 10.119654 6.021961 0.0 1.0 910.0 1
52 1 -10.058194 1.609584 0.0 1.0 910.0 1
53 1 18.152322 11.886496 0.0 1.0 910.0 1
54 1 -21.772498 -23.695923 0.0 1.0 910.0 1
55 1 14.629011 22.005703 0.0 1.0 910.0 1
56 1 -7.299989 -20.922117 0.0 1.0 910.0 1
57 1 -17.678544 -9.128973 0.0 1.0 910.0 1
58 1 -0.011145 7.40858 0.0 1.0 910.0 1
59 1 -13.81894 -2.181946 0.0 1.0 910.0 1
60 1 -3.576119 -15.372232 0.0 1.0 910.0 1
61 1 -7.259584 -13.746016 0.0 1.0 910.0 1
62 1 -19.609833 -21.77878 0.0 1.0 910.0 1
63 1 -0.347952 2.548637 0.0 1.0 910.0 1
64 1 -11.451067 -19.037765 0.0 1.0 910.0 1
65 1 9.45946 2.505734 0.0 1.0 910.0 1
66 1 -11.498188 11.452046 0.0 1.0 910.0 1
67 1 10.362226 -5.439106 0.0 1.0 910.0 1
68 1 24.49668 13.264923 0.0 1.0 910.0 1
69 1 12.499924 11.977875 0.0 1.0 910.0 1
70 1 -20.171274 -24.49496 0.0 1.0 910.0 1
71 1 -8.438326 6.108705 0.0 1.0 910.0 1
72 1 0.650881 0.867559 0.0 1.0 910.0 1
73 1 -1.473746 19.962885 0.0 1.0 910.0 1
74 1 10.796637 11.494834 0.0 1.0 910.0 1
75 1 20.544826 -8.876921 0.0 1.0 910.0 1
76 1 -19.806454 3.848207 0.0 1.0 910.0 1
77 1 -11.271543 -7.980758 0.0 1.0 910.0 1
78 1 -14.739392 -15.24635 0.0 1.0 910.0 1
79 1 22.154683 -15.41139 0.0 1.0 910.0 1
80 1 -24.495 -8.488055 0.0 1.0 910.0 1
81 1 -7.257558 15.522958 0.0 1.0 910.0 1
82 1 13.479393 -8.956296 0.0 1.0 910.0 1
83 1 8.858421 -23.628437 0.0 1.0 910.0 1
84 1 -24.495 -9.565926 0.0 1.0 910.0 1
85 1 -13.422259 -11.20871 0.0 1.0 910.0 1
86 1 -14.064207 17.600771 0.0 1.0 910.0 1
87 1 -19.101515 -10.351811 0.0 1.0 910.0 1
88 1 20.507157 3.855596 0.0 1.0 910.0 1
89 1 22.219548 3.923463 0.0 1.0 910.0 1
90 1 -1.876613 4.994675 0.0 1.0 910.0 1
91 1 19.921023 -22.814091 0.0 1.0 910.0 1
92 1 -14.896362 -6.93444 0.0 1.0 910.0 1
93 1 -14.2295 -23.652408 0.0 1.0 910.0 1
94 1 24.496337 7.812782 0.0 1.0 910.0 1
95 1 16.525649 -1.020617 0.0 1.0 910.0 1
96 1 22.179719 -7.904346 0.0 1.0 910.0 1
97 1 15.093287 -16.218895 0.0 1.0 910.0 1
98 1 -24.494938 -18.940782 0.0 1.0 910.0 1
99 1 -9.118347 -4.816876 0.0 1.0 910.0 1
100 1 14.122619 16.143179 0.0 1.0 910.0 1
101 1 -13.102418 20.294769 0.0 1.0 910.0 1
102 1 -10.887016 7.798413 0.0 1.0 910.0 1
103 1 -20.167973 -10.554425 0.0 1.0 910.0 1
104 1 -24.495 -20.940728 0.0 1.0 910.0 1
105 1 19.719343 3.239689 0.0 1.0 910.0 1
106 1 -24.495003 24.494997 0.0 1.0 910.0 1
107 1 -16.671187 24.370258 0.0 1.0 910.0 1
108 1 2.028224 -9.934458 0.0 1.0 910.0 1
109 1 -20.44513 4.73671 0.0 1.0 910.0 1
110 1 -24.495 -12.518744 0.0 1.0 910.0 1
111 1 24.412893 -9.693745 0.0 1.0 910.0 1
112 1 -14.772125 -3.846411 0.0 1.0 910.0 1
113 1 8.419877 17.196903 0.0 1.0 910.0 1
114 1 23.656851 11.347163 0.0 1.0 910.0 1
115 1 -22.292125 2.363099 0.0 1.0 910.0 1
116 1 11.807007 -15.364061 0.0 1.0 910.0 1
117 1 -2.993569 -19.635577 0.0 1.0 910.0 1
118 1 5.362136 -10.88237 0.0 1.0 910.0 1
119 1 -6.864857 -21.822375 0.0 1.0 910.0 1
120 1 12.941788 -18.136652 0.0 1.0 910.0 1
121 1 -8.073281 -17.330373 0.0 1.0 910.0 1
122 1 -9.829494 -19.998356 0.0 1.0 910.0 1
123 1 -22.862651 -16.787745 0.0 1.0 910.0 1
124 1 18.335864 -18.150463 0.0 1.0 910.0 1
125 1 17.279741 -16.273371 0.0 1.0 910.0 1
126 1 18.473848 -7.056017 0.0 1.0 910.0 1
127 1 7.292275 13.991879 0.0 1.0 910.0 1
128 1 20.633999 -12.601728 0.0 1.0 910.0 1
129 1 -16.358632 -17.992523 0.0 1.0 910.0 1
130 1 -22.894918 -21.135614 0.0 1.0 910.0 1
131 1 -12.006374 22.423103 0.0 1.0 910.0 1
132 1 24.116972 19.188376 0.0 1.0 910.0 1
133 1 7.313283 -7.243792 0.0 1.0 910.0 1
134 1 18.81358 14.760719 0.0 1.0 910.0 1
135 1 -23.646101 -22.966456 0.0 1.0 910.0 1
136 1 18.7815 2.636162 0.0 1.0 910.0 1
137 1 24.494996 -16.349195 0.0 1.0 910.0 1
138 1 -10.215397 -7.814296 0.0 1.0 910.0 1
139 1 1.046801 -14.67617 0.0 1.0 910.0 1
140 1 20.969989 -1.420198 0.0 1.0 910.0 1
141 1 -22.373725 -24.495001 0.0 1.0 910.0 1
142 1 -9.25029 -13.568277 0.0 1.0 910.0 1
143 1 13.977864 -21.832632 0.0 1.0 910.0 1
144 1 2.459146 -6.917788 0.0 1.0 910.0 1
145 1 -15.234867 -7.875428 0.0 1.0 910.0 1
146 1 22.902613 13.079196 0.0 1.0 910.0 1
147 1 -21.69815 24.140134 0.0 1.0 910.0 1
148 1 2.017301 -4.399366 0.0 1.0 910.0 1
149 1 6.255598 -22.830993 0.0 1.0 910.0 1
150 1 7.028214 7.610244 0.0 1.0 910.0 1
151 1 20.023033 -15.387025 0.0 1.0 910.0 1
152 1 -18.264113 4.916367 0.0 1.0 910.0 1
153 1 2.801524 16.738754 0.0 1.0 910.0 1
154 1 3.080949 10.849957 0.0 1.0 910.0 1
155 1 6.965608 20.86708 0.0 1.0 910.0 1
156 1 -6.077398 -1.546275 0.0 1.0 910.0 1
157 1 12.894551 -0.160752 0.0 1.0 910.0 1
158 1 -8.130948 -1.018898 0.0 1.0 910.0 1
159 1 -18.576258 -0.724926 0.0 1.0 910.0 1
160 1 -13.041699 -7.334681 0.0 1.0 910.0 1
161 1 13.349335 4.271362 0.0 1.0 910.0 1
162 1 -22.175684 11.391546 0.0 1.0 910.0 1
163 1 1.330793 9.683479 0.0 1.0 910.0 1
164 1 -18.348341 8.636701 0.0 1.0 910.0 1
165 1 14.504186 14.180676 0.0 1.0 910.0 1
166 1 -24.495 -14.458617 0.0 1.0 910.0 1
167 1 18.365063 -3.306586 0.0 1.0 910.0 1
168 1 24.495004 -8.649393 0.0 1.0 910.0 1
169 1 -22.81755 16.052239 0.0 1.0 910.0 1
170 1 20.178524 11.468198 0.0 1.0 910.0 1
171 1 -0.374105 0.81925 0.0 1.0 910.0 1
172 1 6.233733 -18.368559 0.0 1.0 910.0 1
173 1 -16.043173 23.563668 0.0 1.0 910.0 1
174 1 15.64422 13.635174 0.0 1.0 910.0 1
175 1 -0.7293 -24.495102 0.0 1.0 910.0 1
176 1 -20.485718 -5.826247 0.0 1.0 910.0 1
177 1 12.213232 16.735563 0.0 1.0 910.0 1
178 1 7.831255 20.132037 0.0 1.0 910.0 1
179 1 6.751217 2.211174 0.0 1.0 910.0 1
180 1 18.973429 -6.108645 0.0 1.0 910.0 1
181 1 1.883896 -20.102023 0.0 1.0 910.0 1
182 1 21.876465 -0.753342 0.0 1.0 910.0 1
183 1 11.859536 -1.865887 0.0 1.0 910.0 1
184 1 19.944185 0.086435 0.0 1.0 910.0 1
185 1 -8.741491 2.747306 0.0 1.0 910.0 1
186 1 4.132846 5.667448 0.0 1.0 910.0 1
187 1 9.958428 0.533865 0.0 1.0 910.0 1
188 1 -0.648122 -12.529872 0.0 1.0 910.0 1
189 1 9.060065 -19.366313 0.0 1.0 910.0 1
190 1 -1.411269 -10.719138 0.0 1.0 910.0 1
191 1 21.180982 -11.693947 0.0 1.0 910.0 1
192 1 23.617575 -0.614271 0.0 1.0 910.0 1
193 1 24.514362 20.105555 0.0 1.0 910.0 1
194 1 -1.001129 17.148818 0.0 1.0 910.0 1
195 1 19.047189 0.60012 0.0 1.0 910.0 1
196 1 2.299358 1.656143 0.0 1.0 910.0 1
197 1 -10.392517 -20.9178 0.0 1.0 910.0 1
198 1 3.865356 16.121951 0.0 1.0 910.0 1
199 1 21.824329 13.629824 0.0 1.0 910.0 1
200 1 21.039254 -19.122581 0.0 1.0 910.0 1
201 1 -5.184158 12.20315 0.0 1.0 910.0 1
202 1 19.533743 -7.045204 0.0 1.0 910.0 1
203 1 2.867199 -12.678946 0.0 1.0 910.0 1
204 1 21.887318 23.6382 0.0 1.0 910.0 1
205 1 17.726684 5.093798 0.0 1.0 910.0 1
206 1 -15.102498 22.090328 0.0 1.0 910.0 1
207 1 -17.323425 -10.972225 0.0 1.0 910.0 1
208 1 -14.081255 -16.11737 0.0 1.0 910.0 1
209 1 -6.254414 4.214384 0.0 1.0 910.0 1
210 1 23.932748 4.940948 0.0 1.0 910.0 1
211 1 5.296318 0.802781 0.0 1.0 910.0 1
212 1 20.468333 13.642048 0.0 1.0 910.0 1
213 1 1.842088 -12.203149 0.0 1.0 910.0 1
214 1 -5.479146 16.15549 0.0 1.0 910.0 1
215 1 12.555994 -14.670306 0.0 1.0 910.0 1
216 1 -15.982378 22.565517 0.0 1.0 910.0 1
217 1 22.042681 -6.177747 0.0 1.0 910.0 1
218 1 22.118629 -19.13989 0.0 1.0 910.0 1
219 1 4.883838 -9.761945 0.0 1.0 910.0 1
220 1 -7.295868 -10.921529 0.0 1.0 910.0 1
221 1 -11.869213 5.160066 0.0 1.0 910.0 1
222 1 19.030176 -7.973183 0.0 1.0 910.0 1
223 1 -1.287891 12.263666 0.0 1.0 910.0 1
224 1 14.261888 9.856513 0.0 1.0 910.0 1
225 1 7.974212 -12.657455 0.0 1.0 910.0 1
226 1 1.294477 -8.328293 0.0 1.0 910.0 1
227 1 -0.083209 -21.659476 0.0 1.0 910.0 1
228 1 11.780392 6.511979 0.0 1.0 910.0 1
229 1 2.688031 4.209003 0.0 1.0 910.0 1
230 1 -18.540974 -18.004989 0.0 1.0 910.0 1
231 1 1.900225 -21.839145 0.0 1.0 910.0 1
232 1 -4.656069 -16.85888 0.0 1.0 910.0 1
233 1 10.668785 19.172441 0.0 1.0 910.0 1
234 1 -14.508624 4.082868 0.0 1.0 910.0 1
235 1 11.700182 -8.537369 0.0 1.0 910.0 1
236 1 -22.67631 10.525891 0.0 1.0 910.0 1
237 1 0.974261 -16.821677 0.0 1.0 910.0 1
238 1 6.156177 19.046098 0.0 1.0 910.0 1
239 1 2.876933 -4.909994 0.0 1.0 910.0 1
240 1 17.144241 17.420629 0.0 1.0 910.0 1
241 1 15.040432 4.952305 0.0 1.0 910.0 1
242 1 -20.713228 -1.080297 0.0 1.0 910.0 1
243 1 -19.793671 -12.398072 0.0 1.0 910.0 1
244 1 18.516246 -8.913813 0.0 1.0 910.0 1
245 1 -24.494997 10.694644 0.0 1.0 910.0 1
246 1 18.990166 -13.51923 0.0 1.0 910.0 1
247 1 3.710406 18.142978 0.0 1.0 910.0 1
248 1 16.012272 15.491271 0.0 1.0 910.0 1
249 1 -3.722327 13.803336 0.0 1.0 910.0 1
250 1 -1.560417 4.046142 0.0 1.0 910.0 1
251 1 -6.366069 21.058198 0.0 1.0 910.0 1
252 1 -22.742515 20.374644 0.0 1.0 910.0 1
253 1 1.548108 14.344397 0.0 1.0 910.0 1
254 1 -2.816972 24.494028 0.0 1.0 910.0 1
255 1 6.00191 1.511261 0.0 1.0 910.0 1
256 1 9.444543 16.813365 0.0 1.0 910.0 1
257 1 7.39635 -10.728357 0.0 1.0 910.0 1
258 1 15.454956 -9.0454 0.0 1.0 910.0 1
259 1 -2.367025 12.493313 0.0 1.0 910.0 1
260 1 5.567229 16.389592 0.0 1.0 910.0 1
261 1 -0.303545 8.364618 0.0 1.0 910.0 1
262 1 11.811151 -21.815175 0.0 1.0 910.0 1
263 1 8.359458 -24.495056 0.0 1.0 910.0 1
264 1 9.856454 -6.301546 0.0 1.0 910.0 1
265 1 -9.880006 -21.825485 0.0 1.0 910.0 1
266 1 1.631152 -6.357554 0.0 1.0 910.0 1
267 1 2.748454 -15.725824 0.0 1.0 910.0 1
268 1 -16.366691 -21.777656 0.0 1.0 910.0 1
269 1 -15.745613 2.275663 0.0 1.0 910.0 1
270 1 20.100165 -7.95283 0.0 1.0 910.0 1
271 1 -15.557166 4.031239 0.0 1.0 910.0 1
272 1 -10.536275 -24.478858 0.0 1.0 910.0 1
273 1 24.495 3.114614 0.0 1.0 910.0 1
274 1 19.834765 21.923887 0.0 1.0 910.0 1
275 1 8.22881 -11.69045 0.0 1.0 910.0 1
276 1 -6.957083 24.495 0.0 1.0 910.0 1
277 1 -11.464415 -10.72076 0.0 1.0 910.0 1
278 1 13.463058 19.067968 0.0 1.0 910.0 1
279 1 7.050886 -15.77092 0.0 1.0 910.0 1
280 1 20.966067 7.615476 0.0 1.0 910.0 1
281 1 -6.101283 6.947585 0.0 1.0 910.0 1
282 1 -0.812787 -13.5159 0.0 1.0 910.0 1
283 1 -19.414795 -5.631404 0.0 1.0 910.0 1
284 1 -15.586594 5.911197 0.0 1.0 910.0 1
285 1 -23.439091 -2.772143 0.0 1.0 910.0 1
286 1 -13.381573 18.440408 0.0 1.0 910.0 1
287 1 13.717815 -4.567596 0.0 1.0 910.0 1
288 1 8.362391 -5.41279 0.0 1.0 910.0 1
289 1 -17.677145 4.031354 0.0 1.0 910.0 1
290 1 18.172892 -1.155015 0.0 1.0 910.0 1
291 1 18.300866 24.49916 0.0 1.0 910.0 1
292 1 -4.518946 -6.293853 0.0 1.0 910.0 1
293 1 -23.646926 10.164763 0.0 1.0 910.0 1
294 1 -13.6887 16.568924 0.0 1.0 910.0 1
295 1 8.928903 20.065826 0.0 1.0 910.0 1
296 1 4.049021 -3.634917 0.0 1.0 910.0 1
297 1 12.289978 10.112217 0.0 1.0 910.0 1
298 1 19.214467 7.226272 0.0 1.0 910.0 1
299 1 3.831128 -4.610905 0.0 1.0 910.0 1
300 1 -21.162785 13.236485 0.0 1.0 910.0 1
301 1 -2.064161 23.526038 0.0 1.0 910.0 1
302 1 5.921478 -2.933049 0.0 1.0 910.0 1
303 1 -13.004422 17.418948 0.0 1.0 910.0 1
304 1 23.630563 13.764355 0.0 1.0 910.0 1
305 1 -5.628104 10.354987 0.0 1.0 910.0 1
306 1 12.24741 -9.374308 0.0 1.0 910.0 1
307 1 -16.920464 22.219167 0.0 1.0 910.0 1
308 1 4.210819 21.680879 0.0 1.0 910.0 1
309 1 2.460722 13.756308 0.0 1.0 910.0 1
310 1 5.080839 20.754573 0.0 1.0 910.0 1
311 1 0.169918 -11.955991 0.0 1.0 910.0 1
312 1 0.270084 -22.762763 0.0 1.0 910.0 1
313 1 21.497095 -14.469628 0.0 1.0 910.0 1
314 1 3.585265 9.196473 0.0 1.0 910.0 1
315 1 17.091694 14.899954 0.0 1.0 910.0 1
316 1 -22.630006 -6.219096 0.0 1.0 910.0 1
317 1 10.545747 14.545707 0.0 1.0 910.0 1
318 1 -21.864458 9.495638 0.0 1.0 910.0 1
319 1 18.52129 -10.805519 0.0 1.0 910.0 1
320 1 21.901718 -4.2344 0.0 1.0 910.0 1
321 1 -17.877756 -15.963757 0.0 1.0 910.0 1
322 1 -13.517971 9.732942 0.0 1.0 910.0 1
323 1 -18.98828 -1.745102 0.0 1.0 910.0 1
324 1 23.889468 -12.623834 0.0 1.0 910.0 1
325 1 0.006997 5.668982 0.0 1.0 910.0 1
326 1 -8.334403 15.712415 0.0 1.0 910.0 1
327 1 -13.149933 -23.653715 0.0 1.0 910.0 1
328 1 -21.754234 -15.671149 0.0 1.0 910.0 1
329 1 -0.788778 -1.415472 0.0 1.0 910.0 1
330 1 23.5695 17.871546 0.0 1.0 910.0 1
331 1 15.774672 -4.509226 0.0 1.0 910.0 1
332 1 -23.586705 23.076707 0.0 1.0 910.0 1
333 1 -20.88235 -9.733294 0.0 1.0 910.0 1
334 1 22.114699 5.043662 0.0 1.0 910.0 1
335 1 19.161807 15.696506 0.0 1.0 910.0 1
336 1 -23.36478 -11.191475 0.0 1.0 910.0 1
337 1 8.277376 -16.197557 0.0 1.0 910.0 1
338 1 17.233597 -19.994877 0.0 1.0 910.0 1
339 1 -12.586724 5.91562 0.0 1.0 910.0 1
340 1 5.208646 21.746298 0.0 1.0 910.0 1
341 1 -4.605069 -15.860279 0.0 1.0 910.0 1
342 1 -18.874271 1.119585 0.0 1.0 910.0 1
343 1 12.10676 23.50048 0.0 1.0 910.0 1
344 1 15.487647 11.625125 0.0 1.0 910.0 1
345 1 14.112426 -10.311309 0.0 1.0 910.0 1
346 1 6.960543 1.233592 0.0 1.0 910.0 1
347 1 21.505372 -21.922154 0.0 1.0 910.0 1
348 1 -5.02929 8.333951 0.0 1.0 910.0 1
349 1 -7.445358 21.225097 0.0 1.0 910.0 1
350 1 4.308995 -8.853884 0.0 1.0 910.0 1
351 1 -20.036369 18.711533 0.0 1.0 910.0 1
352 1 22.775918 -12.648927 0.0 1.0 910.0 1
353 1 1.868713 16.337485 0.0 1.0 910.0 1
354 1 8.474052 2.675075 0.0 1.0 910.0 1
355 1 15.561253 12.638404 0.0 1.0 910.0 1
356 1 2.007312 -13.189287 0.0 1.0 910.0 1
357 1 2.636143 -1.432199 0.0 1.0 910.0 1
358 1 1.620219 15.368835 0.0 1.0 910.0 1
359 1 -8.701054 -18.181795 0.0 1.0 910.0 1
360 1 24.495442 9.811919 0.0 1.0 910.0 1
361 1 -7.885598 -10.072793 0.0 1.0 910.0 1
362 1 -10.903349 -6.970945 0.0 1.0 910.0 1
363 1 -2.691954 -18.682542 0.0 1.0 910.0 1
364 1 22.584105 2.992317 0.0 1.0 910.0 1
365 1 -23.625236 22.001648 0.0 1.0 910.0 1
366 1 -12.92942 4.97631 0.0 1.0 910.0 1
367 1 15.731674 23.666482 0.0 1.0 910.0 1
368 1 -22.691332 8.412972 0.0 1.0 910.0 1
369 1 -10.991219 -9.803931 0.0 1.0 910.0 1
370 1 -20.762116 -15.463996 0.0 1.0 910.0 1
371 1 22.496643 -20.0718 0.0 1.0 910.0 1
372 1 19.921855 -24.495009 0.0 1.0 910.0 1
373 1 -2.270499 -23.628705 0.0 1.0 910.0 1
374 1 9.369762 12.848198 0.0 1.0 910.0 1
375 1 15.964119 -11.559603 0.0 1.0 910.0 1
376 1 15.362096 18.443059 0.0 1.0 910.0 1
377 1 -5.431759 -0.782892 0.0 1.0 910.0 1
378 1 0.713957 -2.058365 0.0 1.0 910.0 1
379 1 -2.74282 -4.824101 0.0 1.0 910.0 1
380 1 -20.039327 -1.923993 0.0 1.0 910.0 1
381 1 -3.403439 19.025104 0.0 1.0 910.0 1
382 1 -22.783204 13.933532 0.0 1.0 910.0 1
383 1 -23.454839 -24.495 0.0 1.0 910.0 1
384 1 -21.611764 10.463161 0.0 1.0 910.0 1
385 1 6.054148 -15.695091 0.0 1.0 910.0 1
386 1 -0.654521 -20.838796 0.0 1.0 910.0 1
387 1 1.890047 3.60648 0.0 1.0 910.0 1
388 1 -8.314758 -7.22334 0.0 1.0 910.0 1
389 1 -8.370075 -9.198738 0.0 1.0 910.0 1
390 1 7.830971 -8.09932 0.0 1.0 910.0 1
391 1 -19.087378 -7.4816 0.0 1.0 910.0 1
392 1 3.095011 -3.934143 0.0 1.0 910.0 1
393 1 -3.770029 -24.495241 0.0 1.0 910.0 1
394 1 -16.354882 -19.882289 0.0 1.0 910.0 1
395 1 12.324208 7.351097 0.0 1.0 910.0 1
396 1 -10.953577 -21.842563 0.0 1.0 910.0 1
397 1 -13.078818 22.347449 0.0 1.0 910.0 1
398 1 17.29854 22.769682 0.0 1.0 910.0 1
399 1 -2.539666 -0.634212 0.0 1.0 910.0 1
400 1 -5.709254 -9.894783 0.0 1.0 910.0 1
401 1 -0.803029 -4.253691 0.0 1.0 910.0 1
402 1 -15.678999 24.494992 0.0 1.0 910.0 1
403 1 19.143708 17.435607 0.0 1.0 910.0 1
404 1 -19.630346 -23.651858 0.0 1.0 910.0 1
405 1 23.096695 -20.993331 0.0 1.0 910.0 1
406 1 -21.402743 -0.232548 0.0 1.0 910.0 1
407 1 -15.19765 -10.5733 0.0 1.0 910.0 1
408 1 -2.583505 -12.438187 0.0 1.0 910.0 1
409 1 -12.068002 3.16739 0.0 1.0 910.0 1
410 1 22.432579 21.073892 0.0 1.0 910.0 1
411 1 24.232381 -15.384327 0.0 1.0 910.0 1
412 1 24.495035 17.263904 0.0 1.0 910.0 1
413 1 -12.301159 4.15286 0.0 1.0 910.0 1
414 1 -16.566457 -14.676075 0.0 1.0 910.0 1
415 1 -2.967171 -7.382273 0.0 1.0 910.0 1
416 1 -14.136964 12.543552 0.0 1.0 910.0 1
417 1 16.199622 -0.075551 0.0 1.0 910.0 1
418 1 4.506682 18.747947 0.0 1.0 910.0 1
419 1 -23.35839 -8.278975 0.0 1.0 910.0 1
420 1 13.766187 10.744178 0.0 1.0 910.0 1
421 1 -9.616746 -14.498677 0.0 1.0 910.0 1
422 1 19.915666 -4.302891 0.0 1.0 910.0 1
423 1 -7.265613 12.660376 0.0 1.0 910.0 1
424 1 -20.09794 -20.848417 0.0 1.0 910.0 1
425 1 -2.324941 -8.147996 0.0 1.0 910.0 1
426 1 12.604409 14.808228 0.0 1.0 910.0 1
427 1 10.809422 6.745623 0.0 1.0 910.0 1
428 1 15.621974 -17.164234 0.0 1.0 910.0 1
429 1 -9.882123 19.755411 0.0 1.0 910.0 1
430 1 0.892462 7.83658 0.0 1.0 910.0 1
431 1 -11.90101 -2.362411 0.0 1.0 910.0 1
432 1 -24.494994 6.278126 0.0 1.0 910.0 1
433 1 9.225403 17.788967 0.0 1.0 910.0 1
434 1 9.33389 -22.748707 0.0 1.0 910.0 1
435 1 -5.80074 -19.242975 0.0 1.0 910.0 1
436 1 -15.198495 -0.750124 0.0 1.0 910.0 1
437 1 15.902045 -1.802278 0.0 1.0 910.0 1
438 1 -11.639804 19.10886 0.0 1.0 910.0 1
439 1 17.791604 23.639093 0.0 1.0 910.0 1
440 1 -0.880598 -5.47038 0.0 1.0 910.0 1
441 1 13.262654 9.880375 0.0 1.0 910.0 1
442 1 -2.755125 -16.683959 0.0 1.0 910.0 1
443 1 -22.30129 -10.975734 0.0 1.0 910.0 1
444 1 23.548193 3.619553 0.0 1.0 910.0 1
445 1 -21.118914 15.00005 0.0 1.0 910.0 1
446 1 16.22909 22.798747 0.0 1.0 910.0 1
447 1 7.389836 -5.180304 0.0 1.0 910.0 1
448 1 14.510675 -24.495007 0.0 1.0 910.0 1
449 1 23.622601 8.325517 0.0 1.0 910.0 1
450 1 19.320453 22.780544 0.0 1.0 910.0 1
451 1 14.217922 -13.99849 0.0 1.0 910.0 1
452 1 -20.519432 -19.347427 0.0 1.0 910.0 1
453 1 22.618622 -5.360259 0.0 1.0 910.0 1
454 1 -3.675361 2.303973 0.0 1.0 910.0 1
455 1 -7.992497 11.958254 0.0 1.0 910.0 1
456 1 12.021874 2.70655 0.0 1.0 910.0 1
457 1 2.619709 11.739048 0.0 1.0 910.0 1
458 1 6.314174 4.161907 0.0 1.0 910.0 1
459 1 7.817085 15.626007 0.0 1.0 910.0 1
460 1 21.374828 24.496634 0.0 1.0 910.0 1
461 1 -19.432486 8.598719 0.0 1.0 910.0 1
462 1 6.40785 12.536273 0.0 1.0 910.0 1
463 1 21.842971 7.136497 0.0 1.0 910.0 1
464 1 14.528606 -19.019567 0.0 1.0 910.0 1
465 1 -15.247805 -1.970049 0.0 1.0 910.0 1
466 1 18.20757 7.702355 0.0 1.0 910.0 1
467 1 -3.703777 0.571544 0.0 1.0 910.0 1
468 1 -13.099146 -19.933177 0.0 1.0 910.0 1
469 1 -5.748598 -21.827623 0.0 1.0 910.0 1
470 1 -22.571372 -12.002333 0.0 1.0 910.0 1
471 1 -15.501654 -14.457646 0.0 1.0 910.0 1
472 1 5.839634 -3.929618 0.0 1.0 910.0 1
473 1 -14.668021 0.605018 0.0 1.0 910.0 1
474 1 -10.008225 -1.296728 0.0 1.0 910.0 1
475 1 23.496622 -20.076791 0.0 1.0 910.0 1
476 1 6.553107 3.191111 0.0 1.0 910.0 1
477 1 -24.495004 20.394325 0.0 1.0 910.0 1
478 1 17.395052 -0.526687 0.0 1.0 910.0 1
479 1 -22.552952 -14.813447 0.0 1.0 910.0 1
480 1 -7.043198 -4.514373 0.0 1.0 910.0 1
481 1 -10.456334 -22.720246 0.0 1.0 910.0 1
482 1 16.678607 -22.791316 0.0 1.0 910.0 1
483 1 15.768093 2.903487 0.0 1.0 910.0 1
484 1 3.411256 -6.573778 0.0 1.0 910.0 1
485 1 -12.993131 -16.170647 0.0 1.0 910.0 1
486 1 -5.536566 -24.49567 0.0 1.0 910.0 1
487 1 -21.544994 8.548068 0.0 1.0 910.0 1
488 1 -4.508372 18.826304 0.0 1.0 910.0 1
489 1 19.031325 -11.665636 0.0 1.0 910.0 1
490 1 -1.246217 -2.301986 0.0 1.0 910.0 1
491 1 7.16956 -18.719791 0.0 1.0 910.0 1
492 1 16.902578 -6.19675 0.0 1.0 910.0 1
493 1 17.396925 -12.560554 0.0 1.0 910.0 1
494 1 6.359551 -24.495369 0.0 1.0 910.0 1
495 1 -22.786909 3.232115 0.0 1.0 910.0 1
496 1 3.275288 -22.745186 0.0 1.0 910.0 1
497 1 14.238794 -3.714034 0.0 1.0 910.0 1
498 1 9.225841 -11.622131 0.0 1.0 910.0 1
499 1 7.873619 -9.830659 0.0 1.0 910.0 1
500 1 -6.182607 15.325486 0.0 1.0 910.0 1
501 1 -16.1934 -2.300077 0.0 1.0 910.0 1
502 1 -10.545198 9.85868 0.0 1.0 910.0 1
503 1 21.130113 19.173314 0.0 1.0 910.0 1
504 1 14.395009 -7.179512 0.0 1.0 910.0 1
505 1 -14.096749 -7.53496 0.0 1.0 910.0 1
506 1 -19.394256 6.728355 0.0 1.0 910.0 1
507 1 12.753353 6.278499 0.0 1.0 910.0 1
508 1 3.477086 -1.972964 0.0 1.0 910.0 1
509 1 16.741257 21.939937 0.0 1.0 910.0 1
510 1 -5.957085 24.495001 0.0 1.0 910.0 1
511 1 9.497951 -1.189817 0.0 1.0 910.0 1
512 1 20.76539 1.770381 0.0 1.0 910.0 1
513 1 -23.641883 13.331597 0.0 1.0 910.0 1
514 1 4.272025 -22.651097 0.0 1.0 910.0 1
515 1 9.351509 -8.947916 0.0 1.0 910.0 1
516 1 5.396631 13.566577 0.0 1.0 910.0 1
517 1 -1.161828 3.129372 0.0 1.0 910.0 1
518 1 -10.611433 -12.568865 0.0 1.0 910.0 1
519 1 19.391285 -21.891351 0.0 1.0 910.0 1
520 1 -9.596297 9.302157 0.0 1.0 910.0 1
521 1 5.186815 -2.254699 0.0 1.0 910.0 1
522 1 6.920836 -3.51346 0.0 1.0 910.0 1
523 1 17.912474 14.330657 0.0 1.0 910.0 1
524 1 7.257215 0.278886 0.0 1.0 910.0 1
525 1 -19.162431 2.970119 0.0 1.0 910.0 1
526 1 22.06293 -22.798015 0.0 1.0 910.0 1
527 1 19.46267 -5.194388 0.0 1.0 910.0 1
528 1 -10.847313 -4.119799 0.0 1.0 910.0 1
529 1 -17.362878 15.918533 0.0 1.0 910.0 1
530 1 -17.465895 -23.653721 0.0 1.0 910.0 1
531 1 -20.089633 13.272347 0.0 1.0 910.0 1
532 1 -10.910384 -2.227028 0.0 1.0 910.0 1
533 1 -2.107862 -4.052949 0.0 1.0 910.0 1
534 1 -15.20387 12.50015 0.0 1.0 910.0 1
535 1 -13.413876 -8.346685 0.0 1.0 910.0 1
536 1 -20.864466 9.492207 0.0 1.0 910.0 1
537 1 -0.363424 21.486849 0.0 1.0 910.0 1
538 1 -5.673438 -15.289383 0.0 1.0 910.0 1
539 1 -21.714812 -18.544324 0.0 1.0 910.0 1
540 1 -18.008276 -13.01777 0.0 1.0 910.0 1
541 1 -15.907101 -9.75905 0.0 1.0 910.0 1
542 1 15.590056 -24.495004 0.0 1.0 910.0 1
543 1 11.834654 -6.553616 0.0 1.0 910.0 1
544 1 12.858286 -1.816085 0.0 1.0 910.0 1
545 1 -23.645806 0.438405 0.0 1.0 910.0 1
546 1 0.400283 -8.774687 0.0 1.0 910.0 1
547 1 -15.024371 23.158419 0.0 1.0 910.0 1
548 1 22.624881 18.199427 0.0 1.0 910.0 1
549 1 9.359447 -24.494449 0.0 1.0 910.0 1
550 1 22.509784 -10.718258 0.0 1.0 910.0 1
551 1 -22.237096 -5.217226 0.0 1.0 910.0 1
552 1 19.628722 18.309111 0.0 1.0 910.0 1
553 1 -13.747166 -4.177028 0.0 1.0 910.0 1
554 1 -14.584637 5.92843 0.0 1.0 910.0 1
555 1 -16.106957 4.963473 0.0 1.0 910.0 1
556 1 -1.26412 5.87023 0.0 1.0 910.0 1
557 1 -3.263796 8.834531 0.0 1.0 910.0 1
558 1 9.445148 -10.646428 0.0 1.0 910.0 1
559 1 -1.654906 6.790476 0.0 1.0 910.0 1
560 1 -19.076903 15.189918 0.0 1.0 910.0 1
561 1 5.837806 -8.008243 0.0 1.0 910.0 1
562 1 20.185964 6.989854 0.0 1.0 910.0 1
563 1 3.140619 1.11596 0.0 1.0 910.0 1
564 1 -12.903265 6.904157 0.0 1.0 910.0 1
565 1 5.325437 8.629445 0.0 1.0 910.0 1
566 1 18.840064 -4.338214 0.0 1.0 910.0 1
567 1 3.383431 -20.878327 0.0 1.0 910.0 1
568 1 -24.495014 -0.089645 0.0 1.0 910.0 1
569 1 10.70099 -8.559869 0.0 1.0 910.0 1
570 1 8.310214 -7.167112 0.0 1.0 910.0 1
571 1 10.35054 -11.415855 0.0 1.0 910.0 1
572 1 22.7595 -3.405679 0.0 1.0 910.0 1
573 1 -19.956634 19.764371 0.0 1.0 910.0 1
574 1 1.045234 2.85062 0.0 1.0 910.0 1
575 1 -23.564034 24.129903 0.0 1.0 910.0 1
576 1 0.960149 16.949554 0.0 1.0 910.0 1
577 1 -15.818553 -20.831437 0.0 1.0 910.0 1
578 1 -1.373401 0.836178 0.0 1.0 910.0 1
579 1 21.863178 16.69832 0.0 1.0 910.0 1
580 1 -3.099712 -10.508775 0.0 1.0 910.0 1
581 1 19.362554 6.237496 0.0 1.0 910.0 1
582 1 19.589159 4.251855 0.0 1.0 910.0 1
583 1 -12.57025 -20.881921 0.0 1.0 910.0 1
584 1 -7.369347 -2.761707 0.0 1.0 910.0 1
585 1 6.154617 -7.059987 0.0 1.0 910.0 1
586 1 11.944102 -19.926969 0.0 1.0 910.0 1
587 1 -1.979104 7.756165 0.0 1.0 910.0 1
588 1 6.121439 -1.901666 0.0 1.0 910.0 1
589 1 5.428148 18.360787 0.0 1.0 910.0 1
590 1 -4.701399 -19.936776 0.0 1.0 910.0 1
591 1 12.72575 3.489802 0.0 1.0 910.0 1
592 1 -16.897357 16.970879 0.0 1.0 910.0 1
593 1 8.867789 -4.55002 0.0 1.0 910.0 1
594 1 11.137532 20.572275 0.0 1.0 910.0 1
595 1 1.165697 -10.444675 0.0 1.0 910.0 1
596 1 2.945806 -10.486831 0.0 1.0 910.0 1
597 1 -9.242523 5.51511 0.0 1.0 910.0 1
598 1 -13.066079 3.10662 0.0 1.0 910.0 1
599 1 -15.09156 14.464917 0.0 1.0 910.0 1
600 1 -23.579243 -18.34249 0.0 1.0 910.0 1
601 1 -13.987666 6.885268 0.0 1.0 910.0 1
602 1 -18.016588 -7.283949 0.0 1.0 910.0 1
603 1 7.025578 19.540004 0.0 1.0 910.0 1
604 1 8.829701 -8.050235 0.0 1.0 910.0 1
605 1 -0.860265 1.692882 0.0 1.0 910.0 1
606 1 8.244411 12.669697 0.0 1.0 910.0 1
607 1 -17.973597 -20.834909 0.0 1.0 910.0 1
608 1 7.352526 -8.97719 0.0 1.0 910.0 1
609 1 23.637579 6.276243 0.0 1.0 910.0 1
610 1 -21.839025 18.727556 0.0 1.0 910.0 1
611 1 17.077812 8.011024 0.0 1.0 910.0 1
612 1 7.046769 -1.522804 0.0 1.0 910.0 1
613 1 16.140237 7.663456 0.0 1.0 910.0 1
614 1 -9.394552 -3.147151 0.0 1.0 910.0 1
615 1 3.176055 21.130065 0.0 1.0 910.0 1
616 1 -8.640295 9.726441 0.0 1.0 910.0 1
617 1 -9.091459 7.800811 0.0 1.0 910.0 1
618 1 6.522189 -20.312405 0.0 1.0 910.0 1
619 1 -20.987612 -21.440016 0.0 1.0 910.0 1
620 1 3.648469 3.931194 0.0 1.0 910.0 1
621 1 13.681336 18.092658 0.0 1.0 910.0 1
622 1 8.700601 -14.484063 0.0 1.0 910.0 1
623 1 -19.846039 5.769601 0.0 1.0 910.0 1
624 1 21.418723 21.0813 0.0 1.0 910.0 1
625 1 -11.562227 -6.185613 0.0 1.0 910.0 1
626 1 -10.248965 -13.514817 0.0 1.0 910.0 1
627 1 -18.729526 -12.194674 0.0 1.0 910.0 1
628 1 8.621994 10.641642 0.0 1.0 910.0 1
629 1 -0.420343 -8.017186 0.0 1.0 910.0 1
630 1 -10.485631 16.067418 0.0 1.0 910.0 1
631 1 13.01297 8.077007 0.0 1.0 910.0 1
632 1 -6.302973 -20.995432 0.0 1.0 910.0 1
633 1 -15.09278 8.741921 0.0 1.0 910.0 1
634 1 -1.614067 -12.918447 0.0 1.0 910.0 1
635 1 -17.263945 8.67369 0.0 1.0 910.0 1
636 1 -4.029944 -1.26792 0.0 1.0 910.0 1
637 1 -11.993977 -1.366751 0.0 1.0 910.0 1
638 1 16.546778 20.013907 0.0 1.0 910.0 1
639 1 -3.93395 -19.296391 0.0 1.0 910.0 1
640 1 20.871136 21.917538 0.0 1.0 910.0 1
641 1 3.153529 5.868731 0.0 1.0 910.0 1
642 1 0.692955 -6.70327 0.0 1.0 910.0 1
643 1 -6.017427 8.932547 0.0 1.0 910.0 1
644 1 -11.720806 -12.509345 0.0 1.0 910.0 1
645 1 -8.06849 -15.545205 0.0 1.0 910.0 1
646 1 18.660297 16.561005 0.0 1.0 910.0 1
647 1 15.183568 -14.351037 0.0 1.0 910.0 1
648 1 -11.480793 -20.902339 0.0 1.0 910.0 1
649 1 -7.02979 -11.885497 0.0 1.0 910.0 1
650 1 23.313847 -13.499951 0.0 1.0 910.0 1
651 1 6.486478 -16.596363 0.0 1.0 910.0 1
652 1 7.625893 10.555591 0.0 1.0 910.0 1
653 1 19.423098 -18.168255 0.0 1.0 910.0 1
654 1 18.656819 4.726962 0.0 1.0 910.0 1
655 1 -20.516444 -11.580833 0.0 1.0 910.0 1
656 1 5.489483 -16.520244 0.0 1.0 910.0 1
657 1 24.495801 8.81248 0.0 1.0 910.0 1
658 1 0.106319 -15.226936 0.0 1.0 910.0 1
659 1 8.278595 -19.990189 0.0 1.0 910.0 1
660 1 1.775306 -23.631868 0.0 1.0 910.0 1
661 1 14.421711 4.068352 0.0 1.0 910.0 1
662 1 -4.102454 19.740203 0.0 1.0 910.0 1
663 1 -14.219806 20.440963 0.0 1.0 910.0 1
664 1 13.646465 -14.821038 0.0 1.0 910.0 1
665 1 -0.479315 -10.357815 0.0 1.0 910.0 1
666 1 -9.359497 3.533333 0.0 1.0 910.0 1
667 1 10.01326 -15.835646 0.0 1.0 910.0 1
668 1 -18.514227 -19.898634 0.0 1.0 910.0 1
669 1 18.320808 21.048797 0.0 1.0 910.0 1
670 1 -5.822307 -6.442453 0.0 1.0 910.0 1
671 1 -13.72678 -3.177591 0.0 1.0 910.0 1
672 1 -5.764358 -3.48691 0.0 1.0 910.0 1
673 1 -17.446532 14.240359 0.0 1.0 910.0 1
674 1 6.70611 21.849199 0.0 1.0 910.0 1
675 1 11.623443 -4.526724 0.0 1.0 910.0 1
676 1 1.418771 6.17105 0.0 1.0 910.0 1
677 1 -23.625691 -19.435136 0.0 1.0 910.0 1
678 1 12.315793 -0.976188 0.0 1.0 910.0 1
679 1 6.238887 0.468904 0.0 1.0 910.0 1
680 1 20.952467 8.615269 0.0 1.0 910.0 1
681 1 -3.40352 12.759163 0.0 1.0 910.0 1
682 1 -3.074925 22.329287 0.0 1.0 910.0 1
683 1 -7.751273 -3.693914 0.0 1.0 910.0 1
684 1 16.68729 -20.9211 0.0 1.0 910.0 1
685 1 -20.45495 -14.443303 0.0 1.0 910.0 1
686 1 -23.64723 15.494004 0.0 1.0 910.0 1
687 1 -20.476561 6.675735 0.0 1.0 910.0 1
688 1 14.313305 15.161928 0.0 1.0 910.0 1
689 1 -16.141514 6.839852 0.0 1.0 910.0 1
690 1 4.388381 4.700855 0.0 1.0 910.0 1
691 1 -13.12444 -21.808957 0.0 1.0 910.0 1
692 1 18.317921 -20.01239 0.0 1.0 910.0 1
693 1 -16.203801 20.58112 0.0 1.0 910.0 1
694 1 -14.640275 11.577264 0.0 1.0 910.0 1
695 1 3.823757 -17.4151 0.0 1.0 910.0 1
696 1 -3.037937 -9.072705 0.0 1.0 910.0 1
697 1 -24.495002 14.963643 0.0 1.0 910.0 1
698 1 9.126699 14.127675 0.0 1.0 910.0 1
699 1 22.50515 -21.901112 0.0 1.0 910.0 1
700 1 -10.73353 2.63912 0.0 1.0 910.0 1
701 1 16.390231 -7.174094 0.0 1.0 910.0 1
702 1 9.711364 -14.795182 0.0 1.0 910.0 1
703 1 11.328099 -0.819827 0.0 1.0 910.0 1
704 1 -18.833203 7.684706 0.0 1.0 910.0 1
705 1 -2.97472 7.85725 0.0 1.0 910.0 1
706 1 -12.206818 -5.421169 0.0 1.0 910.0 1
707 1 -1.623131 -14.100045 0.0 1.0 910.0 1
708 1 24.495015 -2.227194 0.0 1.0 910.0 1
709 1 17.627671 18.295951 0.0 1.0 910.0 1
710 1 -0.775177 18.273859 0.0 1.0 910.0 1
711 1 23.329023 -6.064041 0.0 1.0 910.0 1
712 1 13.437083 -1.000657 0.0 1.0 910.0 1
713 1 8.9806 0.74243 0.0 1.0 910.0 1
714 1 -11.045199 1.465657 0.0 1.0 910.0 1
715 1 5.699275 7.104365 0.0 1.0 910.0 1