header line input data

7373 atoms
2 atom types
6 bonds
1 bond types

-20.0 120.0 xlo xhi
-20.0 120.0 ylo yhi
-5.0 5.0 zlo zhi

Atoms

1 1 6.701674 54.92456 0.0 1.0 910.0 1
2 1 78.403053 23.94325 0.0 1.0 910.0 1
3 1 73.952434 20.497703 0.0 1.0 910.0 1
4 1 74.13286 60.809995 0.0 1.0 910.0 1
5 1 68.886136 82.180951 0.0 1.0 910.0 1
6 1 23.958645 41.536685 0.0 1.0 910.0 1
7 1 6.94706 12.963033 0.0 1.0 910.0 1
8 1 37.853417 16.876209 0.0 1.0 910.0 1
9 1 55.75058 26.063782 0.0 1.0 910.0 1
10 1 37.21848 50.090998 0.0 1.0 910.0 1
11 1 91.716848 71.572729 0.0 1.0 910.0 1
12 1 99.485535 15.501672 0.0 1.0 910.0 1
13 1 60.033037 5.018703 0.0 1.0 910.0 1
14 1 14.67565 76.603472 0.0 1.0 910.0 1
15 1 43.912762 80.792878 0.0 1.0 910.0 1
16 1 80.90148 34.134151 0.0 1.0 910.0 1
17 1 23.557973 3.819505 0.0 1.0 910.0 1
18 1 38.137142 46.763174 0.0 1.0 910.0 1
19 1 50.741742 53.275732 0.0 1.0 910.0 1
20 1 68.016843 52.520718 0.0 1.0 910.0 1
21 1 98.227903 10.483638 0.0 1.0 910.0 1
22 1 44.651616 40.072193 0.0 1.0 910.0 1
23 1 92.765136 25.910491 0.0 1.0 910.0 1
24 1 7.507883 14.419273 0.0 1.0 910.0 1
25 1 12.878816 65.840264 0.0 1.0 910.0 1
26 1 48.414582 87.682288 0.0 1.0 910.0 1
27 1 35.68315 44.622858 0.0 1.0 910.0 1
28 1 91.103268 35.640941 0.0 1.0 910.0 1
29 1 61.25061 18.052755 0.0 1.0 910.0 1
30 1 62.240757 3.166758 0.0 1.0 910.0 1
31 1 93.991814 66.124355 0.0 1.0 910.0 1
32 1 32.015728 22.569124 0.0 1.0 910.0 1
33 1 32.355001 56.376354 0.0 1.0 910.0 1
34 1 0.500405 85.60398 0.0 1.0 910.0 1
35 1 2.397913 17.568349 0.0 1.0 910.0 1
36 1 90.358747 12.718729 0.0 1.0 910.0 1
37 1 67.730888 53.577474 0.0 1.0 910.0 1
38 1 36.128511 18.439957 0.0 1.0 910.0 1
39 1 59.281671 89.890812 0.0 1.0 910.0 1
40 1 46.754074 32.778315 0.0 1.0 910.0 1
41 1 58.807728 33.82763 0.0 1.0 910.0 1
42 1 98.141906 14.367918 0.0 1.0 910.0 1
43 1 76.227463 24.845942 0.0 1.0 910.0 1
44 1 66.845051 72.968941 0.0 1.0 910.0 1
45 1 19.694281 47.908479 0.0 1.0 910.0 1
46 1 56.833259 73.76689 0.0 1.0 910.0 1
47 1 56.85879 98.889699 0.0 1.0 910.0 1
48 1 21.593879 66.814118 0.0 1.0 910.0 1
49 1 43.529761 33.04465 0.0 1.0 910.0 1
50 1 72.961279 54.160268 0.0 1.0 910.0 1
51 1 31.622544 65.398541 0.0 1.0 910.0 1
52 1 95.920013 47.036291 0.0 1.0 910.0 1
53 1 45.101736 20.972456 0.0 1.0 910.0 1
54 1 46.07812 59.752158 0.0 1.0 910.0 1
55 1 1.357305 73.972966 0.0 1.0 910.0 1
56 1 19.85243 69.271468 0.0 1.0 910.0 1
57 1 9.692502 60.920114 0.0 1.0 910.0 1
58 1 43.408575 39.88682 0.0 1.0 910.0 1
59 1 63.995571 24.299104 0.0 1.0 910.0 1
60 1 32.391347 66.185328 0.0 1.0 910.0 1
61 1 86.01647 78.757905 0.0 1.0 910.0 1
62 1 75.779282 68.315688 0.0 1.0 910.0 1
63 1 5.617446 55.111013 0.0 1.0 910.0 1
64 1 87.190156 81.088853 0.0 1.0 910.0 1
65 1 38.193028 32.967613 0.0 1.0 910.0 1
66 1 50.027502 62.474737 0.0 1.0 910.0 1
67 1 26.452729 38.024595 0.0 1.0 910.0 1
68 1 10.825958 97.204363 0.0 1.0 910.0 1
69 1 9.898913 57.198664 0.0 1.0 910.0 1
70 1 7.752926 95.899336 0.0 1.0 910.0 1
71 1 0.50005 98.648068 0.0 1.0 910.0 1
72 1 32.243856 68.359122 0.0 1.0 910.0 1
73 1 77.962216 1.373448 0.0 1.0 910.0 1
74 1 64.100741 84.274289 0.0 1.0 910.0 1
75 1 97.178795 52.292045 0.0 1.0 910.0 1
76 1 99.29764 92.558837 0.0 1.0 910.0 1
77 1 53.267066 79.166082 0.0 1.0 910.0 1
78 1 56.023022 22.627302 0.0 1.0 910.0 1
79 1 81.824192 42.42088 0.0 1.0 910.0 1
80 1 90.579555 97.527339 0.0 1.0 910.0 1
81 1 17.250914 92.51642 0.0 1.0 910.0 1
82 1 3.377972 51.765781 0.0 1.0 910.0 1
83 1 23.023277 30.909264 0.0 1.0 910.0 1
84 1 63.797815 42.415638 0.0 1.0 910.0 1
85 1 87.477385 0.497233 0.0 1.0 910.0 1
86 1 18.468365 31.595993 0.0 1.0 910.0 1
87 1 38.436639 97.789412 0.0 1.0 910.0 1
88 1 42.431607 6.731406 0.0 1.0 910.0 1
89 1 21.677693 42.219084 0.0 1.0 910.0 1
90 1 84.606459 63.529735 0.0 1.0 910.0 1
91 1 23.0315 39.387764 0.0 1.0 910.0 1
92 1 47.54677 86.470866 0.0 1.0 910.0 1
93 1 14.89275 3.062247 0.0 1.0 910.0 1
94 1 13.267876 58.429559 0.0 1.0 910.0 1
95 1 74.377286 44.125001 0.0 1.0 910.0 1
96 1 38.614552 2.871999 0.0 1.0 910.0 1
97 1 61.677463 87.775554 0.0 1.0 910.0 1
98 1 56.253732 2.883204 0.0 1.0 910.0 1
99 1 28.78554 97.86617 0.0 1.0 910.0 1
100 1 7.55462 21.456544 0.0 1.0 910.0 1
101 1 74.602131 83.544933 0.0 1.0 910.0 1
102 1 97.360587 25.782201 0.0 1.0 910.0 1
103 1 96.491754 47.97567 0.0 1.0 910.0 1
104 1 19.911748 11.421692 0.0 1.0 910.0 1
105 1 44.16461 66.151399 0.0 1.0 910.0 1
106 1 55.593153 39.280874 0.0 1.0 910.0 1
107 1 58.627372 42.790402 0.0 1.0 910.0 1
108 1 36.373156 98.560817 0.0 1.0 910.0 1
109 1 3.521226 35.926025 0.0 1.0 910.0 1
110 1 29.549397 94.146919 0.0 1.0 910.0 1
111 1 2.158187 41.285936 0.0 1.0 910.0 1
112 1 69.924887 92.794426 0.0 1.0 910.0 1
113 1 11.221384 64.827252 0.0 1.0 910.0 1
114 1 83.553445 65.64251 0.0 1.0 910.0 1
115 1 66.854002 27.606654 0.0 1.0 910.0 1
116 1 10.453671 78.119825 0.0 1.0 910.0 1
117 1 46.892555 16.029628 0.0 1.0 910.0 1
118 1 95.360076 63.136887 0.0 1.0 910.0 1
119 1 91.913461 4.180855 0.0 1.0 910.0 1
120 1 34.893943 56.200586 0.0 1.0 910.0 1
121 1 95.430725 84.096607 0.0 1.0 910.0 1
122 1 70.849934 97.862269 0.0 1.0 910.0 1
123 1 53.650171 57.290665 0.0 1.0 910.0 1
124 1 8.199783 0.496193 0.0 1.0 910.0 1
125 1 95.377621 51.177964 0.0 1.0 910.0 1
126 1 72.806005 34.394493 0.0 1.0 910.0 1
127 1 24.526835 57.68417 0.0 1.0 910.0 1
128 1 4.370067 58.582346 0.0 1.0 910.0 1
129 1 9.471482 70.300974 0.0 1.0 910.0 1
130 1 55.364152 18.188898 0.0 1.0 910.0 1
131 1 85.645324 17.064646 0.0 1.0 910.0 1
132 1 98.401887 39.857627 0.0 1.0 910.0 1
133 1 44.178628 29.671716 0.0 1.0 910.0 1
134 1 11.670358 93.451902 0.0 1.0 910.0 1
135 1 32.861899 80.930112 0.0 1.0 910.0 1
136 1 26.710673 35.840601 0.0 1.0 910.0 1
137 1 49.847522 29.87087 0.0 1.0 910.0 1
138 1 77.489714 57.369602 0.0 1.0 910.0 1
139 1 13.073276 10.941054 0.0 1.0 910.0 1
140 1 65.105391 75.829018 0.0 1.0 910.0 1
141 1 76.553246 3.056683 0.0 1.0 910.0 1
142 1 90.444041 73.914095 0.0 1.0 910.0 1
143 1 84.045067 31.641174 0.0 1.0 910.0 1
144 1 75.132164 7.602355 0.0 1.0 910.0 1
145 1 22.080116 69.044608 0.0 1.0 910.0 1
146 1 51.761293 45.814778 0.0 1.0 910.0 1
147 1 91.371431 0.655637 0.0 1.0 910.0 1
148 1 22.67129 55.499411 0.0 1.0 910.0 1
149 1 0.506663 58.848959 0.0 1.0 910.0 1
150 1 80.109132 64.278307 0.0 1.0 910.0 1
151 1 92.277899 12.483732 0.0 1.0 910.0 1
152 1 33.11814 89.564115 0.0 1.0 910.0 1
153 1 23.750072 11.136486 0.0 1.0 910.0 1
154 1 92.610671 55.821896 0.0 1.0 910.0 1
155 1 89.43628 8.74179 0.0 1.0 910.0 1
156 1 29.967483 30.429635 0.0 1.0 910.0 1
157 1 0.930048 18.12851 0.0 1.0 910.0 1
158 1 91.640732 25.992852 0.0 1.0 910.0 1
159 1 11.100705 84.201204 0.0 1.0 910.0 1
160 1 50.788184 17.496028 0.0 1.0 910.0 1
161 1 62.64743 62.383669 0.0 1.0 910.0 1
162 1 72.794495 85.090196 0.0 1.0 910.0 1
163 1 87.247544 65.145834 0.0 1.0 910.0 1
164 1 49.361452 60.081594 0.0 1.0 910.0 1
165 1 9.668106 14.53295 0.0 1.0 910.0 1
166 1 35.568836 71.794593 0.0 1.0 910.0 1
167 1 1.028351 54.380868 0.0 1.0 910.0 1
168 1 94.91441 17.720642 0.0 1.0 910.0 1
169 1 64.622413 11.405874 0.0 1.0 910.0 1
170 1 71.268873 1.124115 0.0 1.0 910.0 1
171 1 63.967815 43.634654 0.0 1.0 910.0 1
172 1 52.572656 80.052084 0.0 1.0 910.0 1
173 1 35.221825 25.232758 0.0 1.0 910.0 1
174 1 49.09433 29.06917 0.0 1.0 910.0 1
175 1 57.265496 24.495765 0.0 1.0 910.0 1
176 1 39.104309 73.100647 0.0 1.0 910.0 1
177 1 50.062425 22.427332 0.0 1.0 910.0 1
178 1 46.531868 14.458618 0.0 1.0 910.0 1
179 1 49.460257 13.413602 0.0 1.0 910.0 1
180 1 98.582347 66.958228 0.0 1.0 910.0 1
181 1 66.468819 15.838314 0.0 1.0 910.0 1
182 1 86.380724 12.923161 0.0 1.0 910.0 1
183 1 68.953966 53.08867 0.0 1.0 910.0 1
184 1 88.12922 62.350471 0.0 1.0 910.0 1
185 1 74.620759 26.074464 0.0 1.0 910.0 1
186 1 56.97546 47.687261 0.0 1.0 910.0 1
187 1 50.455544 88.936601 0.0 1.0 910.0 1
188 1 24.519316 54.85433 0.0 1.0 910.0 1
189 1 28.843764 42.118564 0.0 1.0 910.0 1
190 1 96.821678 89.93495 0.0 1.0 910.0 1
191 1 32.021302 79.145007 0.0 1.0 910.0 1
192 1 30.53652 57.695724 0.0 1.0 910.0 1
193 1 71.240035 41.016025 0.0 1.0 910.0 1
194 1 12.520358 75.173485 0.0 1.0 910.0 1
195 1 45.801894 6.654953 0.0 1.0 910.0 1
196 1 87.596875 17.852926 0.0 1.0 910.0 1
197 1 58.093443 79.923507 0.0 1.0 910.0 1
198 1 46.152238 29.112263 0.0 1.0 910.0 1
199 1 96.578581 73.834822 0.0 1.0 910.0 1
200 1 92.889881 38.304962 0.0 1.0 910.0 1
201 1 14.36696 35.371759 0.0 1.0 910.0 1
202 1 76.786891 16.832751 0.0 1.0 910.0 1
203 1 32.156661 81.814925 0.0 1.0 910.0 1
204 1 23.84251 14.279735 0.0 1.0 910.0 1
205 1 92.069528 39.070238 0.0 1.0 910.0 1
206 1 95.614237 68.301795 0.0 1.0 910.0 1
207 1 46.779322 61.610814 0.0 1.0 910.0 1
208 1 24.689226 78.433935 0.0 1.0 910.0 1
209 1 99.500184 39.801675 0.0 1.0 910.0 1
210 1 95.601978 76.605729 0.0 1.0 910.0 1
211 1 38.123692 37.429726 0.0 1.0 910.0 1
212 1 80.063515 69.624726 0.0 1.0 910.0 1
213 1 54.213583 56.355615 0.0 1.0 910.0 1
214 1 28.206815 58.965531 0.0 1.0 910.0 1
215 1 54.879006 82.025398 0.0 1.0 910.0 1
216 1 38.657633 59.572266 0.0 1.0 910.0 1
217 1 2.159924 52.396961 0.0 1.0 910.0 1
218 1 73.83728 96.306072 0.0 1.0 910.0 1
219 1 63.439027 63.781397 0.0 1.0 910.0 1
220 1 91.512935 44.455669 0.0 1.0 910.0 1
221 1 55.835101 74.228514 0.0 1.0 910.0 1
222 1 50.566318 56.299215 0.0 1.0 910.0 1
223 1 76.346758 95.198285 0.0 1.0 910.0 1
224 1 58.840206 38.229549 0.0 1.0 910.0 1
225 1 83.834017 24.316194 0.0 1.0 910.0 1
226 1 36.789265 22.5185 0.0 1.0 910.0 1
227 1 31.379791 73.521814 0.0 1.0 910.0 1
228 1 37.247591 33.52819 0.0 1.0 910.0 1
229 1 85.841427 41.611456 0.0 1.0 910.0 1
230 1 59.421861 52.694199 0.0 1.0 910.0 1
231 1 85.861482 30.160188 0.0 1.0 910.0 1
232 1 11.412739 87.946555 0.0 1.0 910.0 1
233 1 25.0185 18.905106 0.0 1.0 910.0 1
234 1 17.852669 24.789078 0.0 1.0 910.0 1
235 1 86.415087 52.232881 0.0 1.0 910.0 1
236 1 47.102001 85.4647 0.0 1.0 910.0 1
237 1 79.259602 15.313075 0.0 1.0 910.0 1
238 1 3.693026 84.301252 0.0 1.0 910.0 1
239 1 93.725559 92.165441 0.0 1.0 910.0 1
240 1 31.938021 52.411772 0.0 1.0 910.0 1
241 1 12.684041 6.495293 0.0 1.0 910.0 1
242 1 21.733662 25.701337 0.0 1.0 910.0 1
243 1 51.021637 7.098501 0.0 1.0 910.0 1
244 1 37.048384 97.692338 0.0 1.0 910.0 1
245 1 99.511246 81.230107 0.0 1.0 910.0 1
246 1 65.88224 58.032664 0.0 1.0 910.0 1
247 1 91.45983 98.797002 0.0 1.0 910.0 1
248 1 4.659577 16.237096 0.0 1.0 910.0 1
249 1 43.543722 7.939274 0.0 1.0 910.0 1
250 1 42.131104 20.176119 0.0 1.0 910.0 1
251 1 95.106576 44.993451 0.0 1.0 910.0 1
252 1 65.616589 91.668714 0.0 1.0 910.0 1
253 1 12.469907 28.859955 0.0 1.0 910.0 1
254 1 83.901637 72.309167 0.0 1.0 910.0 1
255 1 54.67831 52.893944 0.0 1.0 910.0 1
256 1 87.345859 22.261036 0.0 1.0 910.0 1
257 1 78.616669 94.418937 0.0 1.0 910.0 1
258 1 95.670725 67.20419 0.0 1.0 910.0 1
259 1 14.6089 50.938275 0.0 1.0 910.0 1
260 1 93.606777 98.402341 0.0 1.0 910.0 1
261 1 22.81279 84.058836 0.0 1.0 910.0 1
262 1 63.768413 36.771069 0.0 1.0 910.0 1
263 1 92.729531 85.225457 0.0 1.0 910.0 1
264 1 52.969435 88.798266 0.0 1.0 910.0 1
265 1 58.915227 63.606523 0.0 1.0 910.0 1
266 1 76.333974 44.410016 0.0 1.0 910.0 1
267 1 58.971821 8.260433 0.0 1.0 910.0 1
268 1 43.110656 44.201599 0.0 1.0 910.0 1
269 1 96.102775 72.722613 0.0 1.0 910.0 1
270 1 56.512409 69.05183 0.0 1.0 910.0 1
271 1 35.492049 3.927644 0.0 1.0 910.0 1
272 1 81.036981 60.485051 0.0 1.0 910.0 1
273 1 13.209189 63.505712 0.0 1.0 910.0 1
274 1 97.498867 86.829337 0.0 1.0 910.0 1
275 1 89.540336 85.923467 0.0 1.0 910.0 1
276 1 62.041801 90.72961 0.0 1.0 910.0 1
277 1 87.982284 16.822817 0.0 1.0 910.0 1
278 1 62.086077 13.427916 0.0 1.0 910.0 1
279 1 65.446092 30.545974 0.0 1.0 910.0 1
280 1 75.416131 98.612689 0.0 1.0 910.0 1
281 1 46.333662 34.969992 0.0 1.0 910.0 1
282 1 57.074116 87.664086 0.0 1.0 910.0 1
283 1 13.023978 1.945598 0.0 1.0 910.0 1
284 1 18.464356 34.432559 0.0 1.0 910.0 1
285 1 60.977889 66.034742 0.0 1.0 910.0 1
286 1 4.346612 81.226246 0.0 1.0 910.0 1
287 1 33.500973 57.834175 0.0 1.0 910.0 1
288 1 90.174773 3.412537 0.0 1.0 910.0 1
289 1 52.799582 48.199826 0.0 1.0 910.0 1
290 1 67.550152 2.0428 0.0 1.0 910.0 1
291 1 12.784179 97.4443 0.0 1.0 910.0 1
292 1 53.076271 42.004103 0.0 1.0 910.0 1
293 1 7.146725 75.065464 0.0 1.0 910.0 1
294 1 1.677975 45.649441 0.0 1.0 910.0 1
295 1 79.762164 59.47863 0.0 1.0 910.0 1
296 1 94.135253 8.84194 0.0 1.0 910.0 1
297 1 93.228911 22.65439 0.0 1.0 910.0 1
298 1 46.483825 56.508269 0.0 1.0 910.0 1
299 1 33.585063 3.306089 0.0 1.0 910.0 1
300 1 52.752158 35.073599 0.0 1.0 910.0 1
301 1 85.589707 64.022189 0.0 1.0 910.0 1
302 1 7.799381 24.183431 0.0 1.0 910.0 1
303 1 71.228897 94.480817 0.0 1.0 910.0 1
304 1 23.767787 99.079521 0.0 1.0 910.0 1
305 1 7.232274 88.978339 0.0 1.0 910.0 1
306 1 59.861488 84.273254 0.0 1.0 910.0 1
307 1 13.60789 56.751074 0.0 1.0 910.0 1
308 1 64.829864 62.893242 0.0 1.0 910.0 1
309 1 84.230523 15.693718 0.0 1.0 910.0 1
310 1 56.328564 62.526807 0.0 1.0 910.0 1
311 1 50.683122 94.510867 0.0 1.0 910.0 1
312 1 77.116772 5.169677 0.0 1.0 910.0 1
313 1 13.250094 36.847454 0.0 1.0 910.0 1
314 1 98.43553 46.927489 0.0 1.0 910.0 1
315 1 30.660792 70.863639 0.0 1.0 910.0 1
316 1 80.736809 58.983074 0.0 1.0 910.0 1
317 1 23.080399 43.633886 0.0 1.0 910.0 1
318 1 2.078327 28.679883 0.0 1.0 910.0 1
319 1 97.1369 0.763893 0.0 1.0 910.0 1
320 1 25.636465 61.194558 0.0 1.0 910.0 1
321 1 66.072014 47.713717 0.0 1.0 910.0 1
322 1 81.937481 73.240763 0.0 1.0 910.0 1
323 1 83.403905 36.438683 0.0 1.0 910.0 1
324 1 94.928915 7.172498 0.0 1.0 910.0 1
325 1 12.65283 0.504935 0.0 1.0 910.0 1
326 1 2.081165 3.748326 0.0 1.0 910.0 1
327 1 38.458872 69.454121 0.0 1.0 910.0 1
328 1 87.292464 95.041539 0.0 1.0 910.0 1
329 1 24.211198 26.878742 0.0 1.0 910.0 1
330 1 91.136376 31.721558 0.0 1.0 910.0 1
331 1 9.212802 17.683339 0.0 1.0 910.0 1
332 1 57.839516 64.584449 0.0 1.0 910.0 1
333 1 63.572737 11.733784 0.0 1.0 910.0 1
334 1 13.303388 96.461284 0.0 1.0 910.0 1
335 1 34.937878 35.322229 0.0 1.0 910.0 1
336 1 26.635685 51.349469 0.0 1.0 910.0 1
337 1 46.150003 23.928428 0.0 1.0 910.0 1
338 1 84.580275 58.91538 0.0 1.0 910.0 1
339 1 46.539209 37.97697 0.0 1.0 910.0 1
340 1 68.493805 49.646596 0.0 1.0 910.0 1
341 1 96.787834 55.718001 0.0 1.0 910.0 1
342 1 19.586696 80.492046 0.0 1.0 910.0 1
343 1 75.54604 67.240309 0.0 1.0 910.0 1
344 1 5.092817 65.045232 0.0 1.0 910.0 1
345 1 68.532794 18.718004 0.0 1.0 910.0 1
346 1 56.327849 46.13164 0.0 1.0 910.0 1
347 1 12.945249 86.441416 0.0 1.0 910.0 1
348 1 94.50255 73.144418 0.0 1.0 910.0 1
349 1 6.072011 39.446463 0.0 1.0 910.0 1
350 1 66.169419 34.605862 0.0 1.0 910.0 1
351 1 85.398644 52.641619 0.0 1.0 910.0 1
352 1 88.03974 99.035669 0.0 1.0 910.0 1
353 1 96.208756 82.042531 0.0 1.0 910.0 1
354 1 33.234449 14.797589 0.0 1.0 910.0 1
355 1 42.114382 67.492494 0.0 1.0 910.0 1
356 1 29.348383 46.883038 0.0 1.0 910.0 1
357 1 65.131216 87.048547 0.0 1.0 910.0 1
358 1 59.106632 12.259718 0.0 1.0 910.0 1
359 1 43.236425 35.557636 0.0 1.0 910.0 1
360 1 87.503152 50.521568 0.0 1.0 910.0 1
361 1 62.825259 58.260063 0.0 1.0 910.0 1
362 1 24.551383 10.180455 0.0 1.0 910.0 1
363 1 98.203999 28.080756 0.0 1.0 910.0 1
364 1 65.908385 62.678337 0.0 1.0 910.0 1
365 1 4.331407 70.573498 0.0 1.0 910.0 1
366 1 85.280505 11.861242 0.0 1.0 910.0 1
367 1 9.846122 54.113254 0.0 1.0 910.0 1
368 1 70.418565 57.760715 0.0 1.0 910.0 1
369 1 53.993651 27.19796 0.0 1.0 910.0 1
370 1 51.241761 33.575396 0.0 1.0 910.0 1
371 1 69.697844 58.579057 0.0 1.0 910.0 1
372 1 11.412165 40.692401 0.0 1.0 910.0 1
373 1 75.541214 94.320675 0.0 1.0 910.0 1
374 1 17.212215 1.592019 0.0 1.0 910.0 1
375 1 17.009404 2.672787 0.0 1.0 910.0 1
376 1 1.213421 78.687452 0.0 1.0 910.0 1
377 1 10.450506 55.032554 0.0 1.0 910.0 1
378 1 82.310995 47.523689 0.0 1.0 910.0 1
379 1 90.957021 93.466115 0.0 1.0 910.0 1
380 1 72.884426 77.734583 0.0 1.0 910.0 1
381 1 52.398392 96.479467 0.0 1.0 910.0 1
382 1 5.133529 63.946699 0.0 1.0 910.0 1
383 1 17.236586 46.837715 0.0 1.0 910.0 1
384 1 6.447538 61.182764 0.0 1.0 910.0 1
385 1 52.763156 61.33876 0.0 1.0 910.0 1
386 1 55.842553 72.034245 0.0 1.0 910.0 1
387 1 26.517053 94.726387 0.0 1.0 910.0 1
388 1 19.89286 61.946496 0.0 1.0 910.0 1
389 1 66.08299 29.649172 0.0 1.0 910.0 1
390 1 86.410757 36.696224 0.0 1.0 910.0 1
391 1 34.776906 37.284048 0.0 1.0 910.0 1
392 1 48.048183 63.521265 0.0 1.0 910.0 1
393 1 70.929406 56.525332 0.0 1.0 910.0 1
394 1 68.987901 44.211922 0.0 1.0 910.0 1
395 1 27.049446 87.631618 0.0 1.0 910.0 1
396 1 25.325449 56.928367 0.0 1.0 910.0 1
397 1 17.592364 33.641488 0.0 1.0 910.0 1
398 1 61.986393 80.676187 0.0 1.0 910.0 1
399 1 52.942822 55.074115 0.0 1.0 910.0 1
400 1 44.474228 33.828874 0.0 1.0 910.0 1
401 1 41.949097 17.581159 0.0 1.0 910.0 1
402 1 99.499756 46.197825 0.0 1.0 910.0 1
403 1 82.915794 42.284055 0.0 1.0 910.0 1
404 1 96.055702 0.529072 0.0 1.0 910.0 1
405 1 15.510414 34.536491 0.0 1.0 910.0 1
406 1 22.26995 88.591199 0.0 1.0 910.0 1
407 1 28.741745 41.023981 0.0 1.0 910.0 1
408 1 6.826269 35.183255 0.0 1.0 910.0 1
409 1 59.992255 64.010606 0.0 1.0 910.0 1
410 1 93.71588 14.009638 0.0 1.0 910.0 1
411 1 28.575439 73.081337 0.0 1.0 910.0 1
412 1 18.073045 95.751766 0.0 1.0 910.0 1
413 1 96.960142 77.096944 0.0 1.0 910.0 1
414 1 29.839484 41.094267 0.0 1.0 910.0 1
415 1 6.520156 42.70735 0.0 1.0 910.0 1
416 1 11.658397 59.932257 0.0 1.0 910.0 1
417 1 63.852351 87.525912 0.0 1.0 910.0 1
418 1 92.398838 18.121133 0.0 1.0 910.0 1
419 1 35.622847 92.107509 0.0 1.0 910.0 1
420 1 68.477773 79.570296 0.0 1.0 910.0 1
421 1 80.956538 80.469427 0.0 1.0 910.0 1
422 1 24.518735 61.372457 0.0 1.0 910.0 1
423 1 30.160323 9.540173 0.0 1.0 910.0 1
424 1 23.352714 34.871593 0.0 1.0 910.0 1
425 1 29.618422 67.845392 0.0 1.0 910.0 1
426 1 94.793823 90.239343 0.0 1.0 910.0 1
427 1 49.554553 76.30773 0.0 1.0 910.0 1
428 1 60.098979 10.224515 0.0 1.0 910.0 1
429 1 21.194682 40.421143 0.0 1.0 910.0 1
430 1 65.863757 3.261605 0.0 1.0 910.0 1
431 1 49.450048 41.191601 0.0 1.0 910.0 1
432 1 30.248065 87.809945 0.0 1.0 910.0 1
433 1 65.342395 36.498195 0.0 1.0 910.0 1
434 1 60.447481 29.819693 0.0 1.0 910.0 1
435 1 27.522079 58.104687 0.0 1.0 910.0 1
436 1 30.976308 98.380368 0.0 1.0 910.0 1
437 1 98.948275 22.139867 0.0 1.0 910.0 1
438 1 95.483711 79.722262 0.0 1.0 910.0 1
439 1 82.493002 69.601569 0.0 1.0 910.0 1
440 1 57.806765 74.62295 0.0 1.0 910.0 1
441 1 22.846142 89.528234 0.0 1.0 910.0 1
442 1 54.872237 73.507476 0.0 1.0 910.0 1
443 1 31.118625 99.499919 0.0 1.0 910.0 1
444 1 16.347626 78.293504 0.0 1.0 910.0 1
445 1 51.95533 5.038615 0.0 1.0 910.0 1
446 1 82.641097 82.976935 0.0 1.0 910.0 1
447 1 6.162656 94.414772 0.0 1.0 910.0 1
448 1 15.451843 95.687458 0.0 1.0 910.0 1
449 1 50.012768 3.295066 0.0 1.0 910.0 1
450 1 70.636971 18.975117 0.0 1.0 910.0 1
451 1 2.479136 36.352921 0.0 1.0 910.0 1
452 1 22.575468 37.47779 0.0 1.0 910.0 1
453 1 75.077381 73.885608 0.0 1.0 910.0 1
454 1 40.256724 39.407456 0.0 1.0 910.0 1
455 1 20.792706 91.047715 0.0 1.0 910.0 1
456 1 62.793842 19.466941 0.0 1.0 910.0 1
457 1 99.417238 35.632677 0.0 1.0 910.0 1
458 1 16.163711 80.371126 0.0 1.0 910.0 1
459 1 95.184383 89.184735 0.0 1.0 910.0 1
460 1 88.29488 61.248792 0.0 1.0 910.0 1
461 1 52.683567 87.4186 0.0 1.0 910.0 1
462 1 43.870329 28.43006 0.0 1.0 910.0 1
463 1 34.438987 49.804718 0.0 1.0 910.0 1
464 1 12.068878 39.809756 0.0 1.0 910.0 1
465 1 75.091272 70.929444 0.0 1.0 910.0 1
466 1 47.782407 53.882791 0.0 1.0 910.0 1
467 1 47.231519 18.371774 0.0 1.0 910.0 1
468 1 67.661396 50.352726 0.0 1.0 910.0 1
469 1 82.479903 70.701389 0.0 1.0 910.0 1
470 1 27.616943 51.846362 0.0 1.0 910.0 1
471 1 17.14117 50.004112 0.0 1.0 910.0 1
472 1 91.062284 42.275984 0.0 1.0 910.0 1
473 1 57.310885 2.483896 0.0 1.0 910.0 1
474 1 65.897804 69.356081 0.0 1.0 910.0 1
475 1 86.412389 73.779479 0.0 1.0 910.0 1
476 1 95.788216 58.083726 0.0 1.0 910.0 1
477 1 30.997869 32.326019 0.0 1.0 910.0 1
478 1 93.05786 94.033952 0.0 1.0 910.0 1
479 1 47.036457 83.732283 0.0 1.0 910.0 1
480 1 60.294547 7.009445 0.0 1.0 910.0 1
481 1 43.62022 5.702151 0.0 1.0 910.0 1
482 1 25.447716 3.593391 0.0 1.0 910.0 1
483 1 59.027837 64.750874 0.0 1.0 910.0 1
484 1 32.04595 32.657557 0.0 1.0 910.0 1
485 1 72.980008 50.029207 0.0 1.0 910.0 1
486 1 79.227368 14.213589 0.0 1.0 910.0 1
487 1 91.278107 78.985722 0.0 1.0 910.0 1
488 1 59.668828 72.664761 0.0 1.0 910.0 1
489 1 94.096696 56.509744 0.0 1.0 910.0 1
490 1 42.943948 1.165563 0.0 1.0 910.0 1
491 1 61.028682 52.42197 0.0 1.0 910.0 1
492 1 58.165146 59.897516 0.0 1.0 910.0 1
493 1 63.762363 5.459092 0.0 1.0 910.0 1
494 1 31.309329 47.520655 0.0 1.0 910.0 1
495 1 20.546097 49.699515 0.0 1.0 910.0 1
496 1 2.918932 53.917462 0.0 1.0 910.0 1
497 1 10.241095 77.040573 0.0 1.0 910.0 1
498 1 7.013388 52.791066 0.0 1.0 910.0 1
499 1 64.812643 89.438285 0.0 1.0 910.0 1
500 1 18.88191 25.176924 0.0 1.0 910.0 1
501 1 46.087505 98.095727 0.0 1.0 910.0 1
502 1 82.736452 85.512494 0.0 1.0 910.0 1
503 1 7.626769 79.129492 0.0 1.0 910.0 1
504 1 88.28726 53.301072 0.0 1.0 910.0 1
505 1 9.874384 73.643524 0.0 1.0 910.0 1
506 1 56.827512 37.49047 0.0 1.0 910.0 1
507 1 38.572953 28.499202 0.0 1.0 910.0 1
508 1 68.446755 14.994597 0.0 1.0 910.0 1
509 1 77.083273 11.509869 0.0 1.0 910.0 1
510 1 71.459976 79.111608 0.0 1.0 910.0 1
511 1 0.500027 3.42343 0.0 1.0 910.0 1
512 1 46.770459 78.001297 0.0 1.0 910.0 1
513 1 75.12513 20.25967 0.0 1.0 910.0 1
514 1 43.089312 29.822484 0.0 1.0 910.0 1
515 1 1.873588 72.984087 0.0 1.0 910.0 1
516 1 4.030338 11.026776 0.0 1.0 910.0 1
517 1 4.820965 21.363871 0.0 1.0 910.0 1
518 1 17.868413 32.576952 0.0 1.0 910.0 1
519 1 94.230461 14.981844 0.0 1.0 910.0 1
520 1 11.659873 57.734701 0.0 1.0 910.0 1
521 1 22.199909 94.69522 0.0 1.0 910.0 1
522 1 84.102362 62.551878 0.0 1.0 910.0 1
523 1 22.592673 73.134463 0.0 1.0 910.0 1
524 1 78.608962 0.486148 0.0 1.0 910.0 1
525 1 19.78611 23.899191 0.0 1.0 910.0 1
526 1 10.00504 84.105707 0.0 1.0 910.0 1
527 1 93.2007 5.935988 0.0 1.0 910.0 1
528 1 2.953783 65.59732 0.0 1.0 910.0 1
529 1 66.246052 71.098637 0.0 1.0 910.0 1
530 1 67.605221 92.886988 0.0 1.0 910.0 1
531 1 86.911106 43.259485 0.0 1.0 910.0 1
532 1 12.833865 5.40231 0.0 1.0 910.0 1
533 1 33.948088 93.215911 0.0 1.0 910.0 1
534 1 27.412076 22.780084 0.0 1.0 910.0 1
535 1 40.928599 31.614872 0.0 1.0 910.0 1
536 1 97.948195 18.355173 0.0 1.0 910.0 1
537 1 2.192382 0.849723 0.0 1.0 910.0 1
538 1 3.276526 71.786965 0.0 1.0 910.0 1
539 1 55.429782 46.76625 0.0 1.0 910.0 1
540 1 47.62111 60.858358 0.0 1.0 910.0 1
541 1 30.027155 3.4671 0.0 1.0 910.0 1
542 1 94.15976 23.240473 0.0 1.0 910.0 1
543 1 55.759887 30.337661 0.0 1.0 910.0 1
544 1 45.524429 75.558744 0.0 1.0 910.0 1
545 1 80.485791 1.669731 0.0 1.0 910.0 1
546 1 44.79487 80.129828 0.0 1.0 910.0 1
547 1 21.870647 91.266528 0.0 1.0 910.0 1
548 1 55.698542 44.110716 0.0 1.0 910.0 1
549 1 48.011129 1.328607 0.0 1.0 910.0 1
550 1 39.190684 48.802192 0.0 1.0 910.0 1
551 1 67.437659 54.63014 0.0 1.0 910.0 1
552 1 84.43157 2.823949 0.0 1.0 910.0 1
553 1 43.326736 34.121307 0.0 1.0 910.0 1
554 1 87.425968 74.204933 0.0 1.0 910.0 1
555 1 85.359288 28.041903 0.0 1.0 910.0 1
556 1 21.816517 76.338961 0.0 1.0 910.0 1
557 1 45.248844 79.127175 0.0 1.0 910.0 1
558 1 43.21374 67.452597 0.0 1.0 910.0 1
559 1 27.53044 70.945559 0.0 1.0 910.0 1
560 1 34.153742 98.37152 0.0 1.0 910.0 1
561 1 91.254707 12.080412 0.0 1.0 910.0 1
562 1 63.55582 96.840431 0.0 1.0 910.0 1
563 1 15.045573 91.8845 0.0 1.0 910.0 1
564 1 43.474611 46.243129 0.0 1.0 910.0 1
565 1 73.800193 8.931258 0.0 1.0 910.0 1
566 1 41.790639 37.866393 0.0 1.0 910.0 1
567 1 86.099811 80.948459 0.0 1.0 910.0 1
568 1 78.535499 35.874692 0.0 1.0 910.0 1
569 1 81.221175 43.341045 0.0 1.0 910.0 1
570 1 98.403559 9.397878 0.0 1.0 910.0 1
571 1 76.242736 45.504765 0.0 1.0 910.0 1
572 1 20.432079 23.009059 0.0 1.0 910.0 1
573 1 93.568551 60.747609 0.0 1.0 910.0 1
574 1 12.345387 87.363552 0.0 1.0 910.0 1
575 1 86.597676 92.164721 0.0 1.0 910.0 1
576 1 64.90543 12.468185 0.0 1.0 910.0 1
577 1 19.263496 39.665121 0.0 1.0 910.0 1
578 1 11.957103 67.594927 0.0 1.0 910.0 1
579 1 65.62135 49.55834 0.0 1.0 910.0 1
580 1 74.389631 85.547578 0.0 1.0 910.0 1
581 1 56.73387 74.862221 0.0 1.0 910.0 1
582 1 83.688434 71.231464 0.0 1.0 910.0 1
583 1 3.873077 75.128711 0.0 1.0 910.0 1
584 1 91.367204 52.883263 0.0 1.0 910.0 1
585 1 26.574408 36.931561 0.0 1.0 910.0 1
586 1 29.08097 72.104266 0.0 1.0 910.0 1
587 1 62.976411 52.423278 0.0 1.0 910.0 1
588 1 46.392671 84.623919 0.0 1.0 910.0 1
589 1 8.896134 38.535886 0.0 1.0 910.0 1
590 1 11.976874 56.681814 0.0 1.0 910.0 1
591 1 70.191883 83.467595 0.0 1.0 910.0 1
592 1 81.004894 87.169569 0.0 1.0 910.0 1
593 1 94.873774 34.23913 0.0 1.0 910.0 1
594 1 57.429343 6.404814 0.0 1.0 910.0 1
595 1 25.379523 90.358497 0.0 1.0 910.0 1
596 1 97.37014 9.021331 0.0 1.0 910.0 1
597 1 24.12384 39.038061 0.0 1.0 910.0 1
598 1 1.589778 20.416537 0.0 1.0 910.0 1
599 1 10.83479 79.400599 0.0 1.0 910.0 1
600 1 90.477675 14.930848 0.0 1.0 910.0 1
601 1 82.389023 78.471079 0.0 1.0 910.0 1
602 1 20.050378 18.345562 0.0 1.0 910.0 1
603 1 8.712796 78.905097 0.0 1.0 910.0 1
604 1 26.397792 56.683995 0.0 1.0 910.0 1
605 1 75.78084 17.302467 0.0 1.0 910.0 1
606 1 73.306461 39.467403 0.0 1.0 910.0 1
607 1 44.235175 39.054352 0.0 1.0 910.0 1
608 1 83.108039 49.032432 0.0 1.0 910.0 1
609 1 45.287673 31.890938 0.0 1.0 910.0 1
610 1 54.78665 43.217047 0.0 1.0 910.0 1
611 1 62.494 11.513434 0.0 1.0 910.0 1
612 1 29.651105 24.713571 0.0 1.0 910.0 1
613 1 34.183292 74.748324 0.0 1.0 910.0 1
614 1 56.676912 10.631202 0.0 1.0 910.0 1
615 1 56.915286 72.669886 0.0 1.0 910.0 1
616 1 40.908243 61.595947 0.0 1.0 910.0 1
617 1 32.99876 55.083119 0.0 1.0 910.0 1
618 1 85.932431 74.756552 0.0 1.0 910.0 1
619 1 69.297351 96.102946 0.0 1.0 910.0 1
620 1 22.941082 32.006299 0.0 1.0 910.0 1
621 1 39.051804 39.788072 0.0 1.0 910.0 1
622 1 43.797478 24.138272 0.0 1.0 910.0 1
623 1 55.852584 79.986533 0.0 1.0 910.0 1
624 1 56.419158 26.937358 0.0 1.0 910.0 1
625 1 54.03633 4.852133 0.0 1.0 910.0 1
626 1 6.836012 44.814189 0.0 1.0 910.0 1
627 1 40.160479 36.902828 0.0 1.0 910.0 1
628 1 10.671041 94.254759 0.0 1.0 910.0 1
629 1 61.396335 53.603744 0.0 1.0 910.0 1
630 1 24.747974 97.201215 0.0 1.0 910.0 1
631 1 85.864884 39.676527 0.0 1.0 910.0 1
632 1 99.147201 63.836764 0.0 1.0 910.0 1
633 1 15.41141 54.101563 0.0 1.0 910.0 1
634 1 99.132385 56.047067 0.0 1.0 910.0 1
635 1 92.050944 93.59162 0.0 1.0 910.0 1
636 1 39.213212 11.481131 0.0 1.0 910.0 1
637 1 54.803335 60.907626 0.0 1.0 910.0 1
638 1 45.371397 57.627246 0.0 1.0 910.0 1
639 1 47.537905 13.982087 0.0 1.0 910.0 1
640 1 71.191182 46.575166 0.0 1.0 910.0 1
641 1 17.766925 23.514276 0.0 1.0 910.0 1
642 1 62.365514 94.781924 0.0 1.0 910.0 1
643 1 75.984204 89.745446 0.0 1.0 910.0 1
644 1 19.797664 5.448159 0.0 1.0 910.0 1
645 1 40.092116 15.985717 0.0 1.0 910.0 1
646 1 52.131148 71.574421 0.0 1.0 910.0 1
647 1 20.579193 84.69786 0.0 1.0 910.0 1
648 1 35.833738 1.98682 0.0 1.0 910.0 1
649 1 48.8352 53.566275 0.0 1.0 910.0 1
650 1 64.924972 20.319369 0.0 1.0 910.0 1
651 1 41.27321 41.009155 0.0 1.0 910.0 1
652 1 86.952062 69.822824 0.0 1.0 910.0 1
653 1 88.862308 2.196627 0.0 1.0 910.0 1
654 1 5.294734 62.857903 0.0 1.0 910.0 1
655 1 70.410199 14.170408 0.0 1.0 910.0 1
656 1 11.142398 96.011111 0.0 1.0 910.0 1
657 1 85.842151 42.999556 0.0 1.0 910.0 1
658 1 25.183502 64.587121 0.0 1.0 910.0 1
659 1 36.061355 4.868898 0.0 1.0 910.0 1
660 1 2.780024 45.743562 0.0 1.0 910.0 1
661 1 27.451687 42.375902 0.0 1.0 910.0 1
662 1 89.044671 65.231497 0.0 1.0 910.0 1
663 1 91.339355 77.102927 0.0 1.0 910.0 1
664 1 62.219731 73.98709 0.0 1.0 910.0 1
665 1 9.458462 80.05328 0.0 1.0 910.0 1
666 1 42.659506 58.746047 0.0 1.0 910.0 1
667 1 32.783998 48.965978 0.0 1.0 910.0 1
668 1 43.173869 73.129209 0.0 1.0 910.0 1
669 1 55.300178 62.91708 0.0 1.0 910.0 1
670 1 41.91344 98.09552 0.0 1.0 910.0 1
671 1 85.437603 26.902848 0.0 1.0 910.0 1
672 1 93.293903 66.974811 0.0 1.0 910.0 1
673 1 30.645984 94.059075 0.0 1.0 910.0 1
674 1 28.435697 57.492071 0.0 1.0 910.0 1
675 1 89.705359 40.795291 0.0 1.0 910.0 1
676 1 80.988643 91.00253 0.0 1.0 910.0 1
677 1 73.206376 69.615321 0.0 1.0 910.0 1
678 1 72.511217 57.172284 0.0 1.0 910.0 1
679 1 17.875265 67.399627 0.0 1.0 910.0 1
680 1 64.098602 80.484026 0.0 1.0 910.0 1
681 1 37.061166 59.768675 0.0 1.0 910.0 1
682 1 29.456696 57.90549 0.0 1.0 910.0 1
683 1 63.823148 19.897853 0.0 1.0 910.0 1
684 1 47.293474 29.353826 0.0 1.0 910.0 1
685 1 93.933361 93.256691 0.0 1.0 910.0 1
686 1 74.207744 22.459595 0.0 1.0 910.0 1
687 1 85.947641 25.305725 0.0 1.0 910.0 1
688 1 11.491058 74.121135 0.0 1.0 910.0 1
689 1 90.612196 75.001127 0.0 1.0 910.0 1
690 1 39.605638 90.98231 0.0 1.0 910.0 1
691 1 53.796516 8.590614 0.0 1.0 910.0 1
692 1 92.431458 5.150612 0.0 1.0 910.0 1
693 1 81.286266 52.457552 0.0 1.0 910.0 1
694 1 25.888577 99.4999 0.0 1.0 910.0 1
695 1 12.386075 16.397424 0.0 1.0 910.0 1
696 1 22.621505 22.148606 0.0 1.0 910.0 1
697 1 49.087074 1.557954 0.0 1.0 910.0 1
698 1 25.338388 41.940137 0.0 1.0 910.0 1
699 1 15.46623 29.391389 0.0 1.0 910.0 1
700 1 74.599241 40.129808 0.0 1.0 910.0 1
701 1 12.804883 76.461382 0.0 1.0 910.0 1
702 1 28.445913 5.627255 0.0 1.0 910.0 1
703 1 37.928923 21.675172 0.0 1.0 910.0 1
704 1 62.427404 39.743426 0.0 1.0 910.0 1
705 1 73.092311 36.810051 0.0 1.0 910.0 1
706 1 97.903751 90.860074 0.0 1.0 910.0 1
707 1 16.468544 39.964493 0.0 1.0 910.0 1
708 1 21.45975 85.403202 0.0 1.0 910.0 1
709 1 92.86773 32.019234 0.0 1.0 910.0 1
710 1 31.364989 15.957173 0.0 1.0 910.0 1
711 1 76.356035 13.515695 0.0 1.0 910.0 1
712 1 27.979232 31.046838 0.0 1.0 910.0 1
713 1 88.070398 38.102194 0.0 1.0 910.0 1
714 1 88.100283 1.403778 0.0 1.0 910.0 1
715 1 62.32002 63.945847 0.0 1.0 910.0 1
716 1 47.366546 66.606505 0.0 1.0 910.0 1
717 1 50.132423 59.296625 0.0 1.0 910.0 1
718 1 70.387566 78.139752 0.0 1.0 910.0 1
719 1 28.160048 39.308421 0.0 1.0 910.0 1
720 1 71.06107 82.793248 0.0 1.0 910.0 1