header line input data

2607 atoms
1 atom types
6 bonds
1 bond types

-25.0 25.0 xlo xhi
-25.0 25.0 ylo yhi
-2.0 2.0 zlo zhi

Atoms

1 1 -12.240355 19.709546 0.0 1.0 910.0 1
2 1 -10.970369 7.78231 0.0 1.0 910.0 1
3 1 -20.810684 -10.610516 0.0 1.0 910.0 1
4 1 -24.475 -20.595713 0.0 1.0 910.0 1
5 1 21.134142 3.853076 0.0 1.0 910.0 1
6 1 -24.475014 24.206418 0.0 1.0 910.0 1
7 1 -15.946765 24.155662 0.0 1.0 910.0 1
8 1 2.816207 -10.277836 0.0 1.0 910.0 1
9 1 -20.79423 4.77388 0.0 1.0 910.0 1
10 1 -24.474938 -13.833004 0.0 1.0 910.0 1
11 1 24.47511 -8.55657 0.0 1.0 910.0 1
12 1 -15.122667 -4.223199 0.0 1.0 910.0 1
13 1 8.430439 16.204017 0.0 1.0 910.0 1
14 1 24.479528 12.304875 0.0 1.0 910.0 1
15 1 -22.56889 2.709529 0.0 1.0 910.0 1
16 1 12.084319 -15.426232 0.0 1.0 910.0 1
17 1 -1.9399 -19.891329 0.0 1.0 910.0 1
18 1 5.513473 -10.813434 0.0 1.0 910.0 1
19 1 -6.812549 -22.605588 0.0 1.0 910.0 1
20 1 12.934106 -18.105912 0.0 1.0 910.0 1
21 1 -8.284781 -17.248706 0.0 1.0 910.0 1
22 1 -9.16169 -19.892432 0.0 1.0 910.0 1
23 1 -22.749346 -17.110387 0.0 1.0 910.0 1
24 1 17.864595 -18.524892 0.0 1.0 910.0 1
25 1 17.34884 -15.621098 0.0 1.0 910.0 1
26 1 17.483318 -6.429148 0.0 1.0 910.0 1
27 1 7.442833 13.227686 0.0 1.0 910.0 1
28 1 20.862671 -12.773715 0.0 1.0 910.0 1
29 1 -16.866521 -18.391576 0.0 1.0 910.0 1
30 1 -22.903074 -21.722847 0.0 1.0 910.0 1
31 1 -10.840817 22.732041 0.0 1.0 910.0 1
32 1 23.563041 18.973386 0.0 1.0 910.0 1
33 1 7.633116 -7.227899 0.0 1.0 910.0 1
34 1 19.001519 15.574301 0.0 1.0 910.0 1
35 1 -24.084599 -23.554341 0.0 1.0 910.0 1
36 1 19.435065 3.091079 0.0 1.0 910.0 1
37 1 24.475 -16.19769 0.0 1.0 910.0 1
38 1 -10.782664 -8.099174 0.0 1.0 910.0 1
39 1 1.070591 -14.596817 0.0 1.0 910.0 1
40 1 20.322674 -1.642306 0.0 1.0 910.0 1
41 1 -21.383019 -24.475 0.0 1.0 910.0 1
42 1 -9.008505 -13.578439 0.0 1.0 910.0 1
43 1 13.490458 -20.860922 0.0 1.0 910.0 1
44 1 3.15188 -7.239322 0.0 1.0 910.0 1
45 1 -16.06686 -7.980778 0.0 1.0 910.0 1
46 1 22.628071 12.93487 0.0 1.0 910.0 1
47 1 -21.612582 24.037591 0.0 1.0 910.0 1
48 1 3.011708 -4.26672 0.0 1.0 910.0 1
49 1 6.340362 -22.72309 0.0 1.0 910.0 1
50 1 7.797986 7.885492 0.0 1.0 910.0 1
51 1 20.306251 -15.714279 0.0 1.0 910.0 1
52 1 -17.985015 4.112584 0.0 1.0 910.0 1
53 1 3.035757 16.566456 0.0 1.0 910.0 1
54 1 3.704593 10.645431 0.0 1.0 910.0 1
55 1 5.832596 19.960505 0.0 1.0 910.0 1
56 1 -6.470983 -2.210065 0.0 1.0 910.0 1
57 1 12.042622 0.006112 0.0 1.0 910.0 1
58 1 -8.180982 -2.214665 0.0 1.0 910.0 1
59 1 -18.371464 -0.640085 0.0 1.0 910.0 1
60 1 -14.230163 -8.038822 0.0 1.0 910.0 1
61 1 14.152036 3.901824 0.0 1.0 910.0 1
62 1 -22.792451 11.435303 0.0 1.0 910.0 1
63 1 1.540476 9.46941 0.0 1.0 910.0 1
64 1 -17.938427 8.814375 0.0 1.0 910.0 1
65 1 13.038693 14.327409 0.0 1.0 910.0 1
66 1 -24.475 -14.91811 0.0 1.0 910.0 1
67 1 18.131833 -3.502223 0.0 1.0 910.0 1
68 1 23.616808 -8.041708 0.0 1.0 910.0 1
69 1 -22.78333 15.749744 0.0 1.0 910.0 1
70 1 20.341898 11.088173 0.0 1.0 910.0 1
71 1 -0.520005 1.211184 0.0 1.0 910.0 1
72 1 6.546136 -19.148628 0.0 1.0 910.0 1
73 1 -15.328983 23.369323 0.0 1.0 910.0 1
74 1 14.785254 14.581509 0.0 1.0 910.0 1
75 1 -0.436662 -24.476408 0.0 1.0 910.0 1
76 1 -20.771867 -6.272261 0.0 1.0 910.0 1
77 1 11.893254 16.715552 0.0 1.0 910.0 1
78 1 6.489019 20.714992 0.0 1.0 910.0 1
79 1 7.158388 2.079038 0.0 1.0 910.0 1
80 1 19.399011 -5.813948 0.0 1.0 910.0 1
81 1 1.176159 -20.141946 0.0 1.0 910.0 1
82 1 21.240729 -0.877046 0.0 1.0 910.0 1
83 1 12.137268 -1.801546 0.0 1.0 910.0 1
84 1 20.118516 0.391472 0.0 1.0 910.0 1
85 1 -6.95035 2.931406 0.0 1.0 910.0 1
86 1 4.066906 5.550224 0.0 1.0 910.0 1
87 1 9.449789 0.548755 0.0 1.0 910.0 1
88 1 -0.582522 -13.39226 0.0 1.0 910.0 1
89 1 9.115122 -18.484786 0.0 1.0 910.0 1
90 1 -1.298454 -10.833472 0.0 1.0 910.0 1
91 1 21.913638 -11.320627 0.0 1.0 910.0 1
92 1 24.118077 -0.592957 0.0 1.0 910.0 1
93 1 24.47593 20.379116 0.0 1.0 910.0 1
94 1 -1.077734 16.908008 0.0 1.0 910.0 1
95 1 19.123921 0.294473 0.0 1.0 910.0 1
96 1 1.553434 -0.076462 0.0 1.0 910.0 1
97 1 -9.830255 -20.814684 0.0 1.0 910.0 1
98 1 2.60106 15.665058 0.0 1.0 910.0 1
99 1 22.004562 13.714451 0.0 1.0 910.0 1
100 1 21.223616 -18.769682 0.0 1.0 910.0 1
101 1 -5.188246 11.765817 0.0 1.0 910.0 1
102 1 19.18552 -6.79055 0.0 1.0 910.0 1
103 1 3.654395 -11.88009 0.0 1.0 910.0 1
104 1 21.531831 24.184438 0.0 1.0 910.0 1
105 1 18.161855 4.629662 0.0 1.0 910.0 1
106 1 -13.706515 22.040042 0.0 1.0 910.0 1
107 1 -18.92096 -10.635013 0.0 1.0 910.0 1
108 1 -13.895346 -15.813049 0.0 1.0 910.0 1
109 1 -6.304667 4.365037 0.0 1.0 910.0 1
110 1 24.477137 5.101683 0.0 1.0 910.0 1
111 1 4.844127 1.393453 0.0 1.0 910.0 1
112 1 19.260755 13.53618 0.0 1.0 910.0 1
113 1 2.054228 -13.046484 0.0 1.0 910.0 1
114 1 -5.417149 16.011905 0.0 1.0 910.0 1
115 1 12.286221 -14.446915 0.0 1.0 910.0 1
116 1 -15.480906 22.375142 0.0 1.0 910.0 1
117 1 21.261151 -6.207742 0.0 1.0 910.0 1
118 1 22.034472 -19.354533 0.0 1.0 910.0 1
119 1 5.471688 -11.812119 0.0 1.0 910.0 1
120 1 -8.133804 -11.829323 0.0 1.0 910.0 1
121 1 -11.147761 5.677103 0.0 1.0 910.0 1
122 1 18.969969 -7.766703 0.0 1.0 910.0 1
123 1 -1.560859 11.315263 0.0 1.0 910.0 1
124 1 14.141213 10.052759 0.0 1.0 910.0 1
125 1 9.250807 -11.591567 0.0 1.0 910.0 1
126 1 2.120287 -8.70176 0.0 1.0 910.0 1
127 1 -0.007731 -21.756706 0.0 1.0 910.0 1
128 1 12.309975 6.863881 0.0 1.0 910.0 1
129 1 2.692666 4.122172 0.0 1.0 910.0 1
130 1 -18.709682 -19.0485 0.0 1.0 910.0 1
131 1 1.624711 -21.033607 0.0 1.0 910.0 1
132 1 -3.721649 -16.805823 0.0 1.0 910.0 1
133 1 9.735095 18.828126 0.0 1.0 910.0 1
134 1 -13.529722 4.453016 0.0 1.0 910.0 1
135 1 12.650742 -8.645945 0.0 1.0 910.0 1
136 1 -21.772658 9.39259 0.0 1.0 910.0 1
137 1 1.741936 -16.900847 0.0 1.0 910.0 1
138 1 5.541316 19.003873 0.0 1.0 910.0 1
139 1 3.621662 -5.058527 0.0 1.0 910.0 1
140 1 16.295411 17.544382 0.0 1.0 910.0 1
141 1 15.203908 4.127414 0.0 1.0 910.0 1
142 1 -20.727023 -1.85812 0.0 1.0 910.0 1
143 1 -19.89065 -12.242327 0.0 1.0 910.0 1
144 1 17.891382 -9.050911 0.0 1.0 910.0 1
145 1 -24.474998 11.406414 0.0 1.0 910.0 1
146 1 18.847336 -13.357141 0.0 1.0 910.0 1
147 1 3.322991 17.682288 0.0 1.0 910.0 1
148 1 15.483507 16.16482 0.0 1.0 910.0 1
149 1 -3.408871 13.99277 0.0 1.0 910.0 1
150 1 -1.732336 4.804617 0.0 1.0 910.0 1
151 1 -6.476096 21.300856 0.0 1.0 910.0 1
152 1 -23.358508 20.510195 0.0 1.0 910.0 1
153 1 2.169353 14.75127 0.0 1.0 910.0 1
154 1 -2.680189 23.871734 0.0 1.0 910.0 1
155 1 5.760301 0.994176 0.0 1.0 910.0 1
156 1 9.37287 16.537551 0.0 1.0 910.0 1
157 1 7.717366 -10.229547 0.0 1.0 910.0 1
158 1 15.977597 -9.627123 0.0 1.0 910.0 1
159 1 -2.694346 12.660887 0.0 1.0 910.0 1
160 1 5.392528 15.391781 0.0 1.0 910.0 1
161 1 0.021035 8.070619 0.0 1.0 910.0 1
162 1 11.037596 -21.984997 0.0 1.0 910.0 1
163 1 8.306777 -24.475833 0.0 1.0 910.0 1
164 1 9.843814 -5.798783 0.0 1.0 910.0 1
165 1 -9.895018 -22.615162 0.0 1.0 910.0 1
166 1 2.334552 -6.663543 0.0 1.0 910.0 1
167 1 3.183379 -15.578826 0.0 1.0 910.0 1
168 1 -15.960247 -20.368137 0.0 1.0 910.0 1
169 1 -15.388721 2.277685 0.0 1.0 910.0 1
170 1 19.799994 -8.456833 0.0 1.0 910.0 1
171 1 -14.488342 3.93857 0.0 1.0 910.0 1
172 1 -12.151094 -24.475015 0.0 1.0 910.0 1
173 1 24.47594 2.336427 0.0 1.0 910.0 1
174 1 19.518732 22.712748 0.0 1.0 910.0 1
175 1 8.478615 -10.879602 0.0 1.0 910.0 1
176 1 -6.847337 24.476568 0.0 1.0 910.0 1
177 1 -11.416086 -10.363394 0.0 1.0 910.0 1
178 1 11.660379 19.261528 0.0 1.0 910.0 1
179 1 6.180491 -15.21859 0.0 1.0 910.0 1
180 1 21.07055 8.195688 0.0 1.0 910.0 1
181 1 -5.69087 7.081532 0.0 1.0 910.0 1
182 1 -0.795298 -14.528369 0.0 1.0 910.0 1
183 1 -19.827462 -5.741589 0.0 1.0 910.0 1
184 1 -15.020357 6.599926 0.0 1.0 910.0 1
185 1 -22.648847 -3.027516 0.0 1.0 910.0 1
186 1 -13.221763 18.288963 0.0 1.0 910.0 1
187 1 13.399188 -4.299129 0.0 1.0 910.0 1
188 1 8.855252 -5.651371 0.0 1.0 910.0 1
189 1 -16.863555 4.260045 0.0 1.0 910.0 1
190 1 17.652983 -0.938599 0.0 1.0 910.0 1
191 1 17.582453 24.475136 0.0 1.0 910.0 1
192 1 -4.810588 -6.462724 0.0 1.0 910.0 1
193 1 -23.644533 9.794372 0.0 1.0 910.0 1
194 1 -13.536061 17.162085 0.0 1.0 910.0 1
195 1 7.322593 19.818 0.0 1.0 910.0 1
196 1 4.064839 -2.87881 0.0 1.0 910.0 1
197 1 12.277072 10.77088 0.0 1.0 910.0 1
198 1 18.485616 7.559548 0.0 1.0 910.0 1
199 1 4.545487 -4.677866 0.0 1.0 910.0 1
200 1 -21.009897 13.510714 0.0 1.0 910.0 1
201 1 -1.885683 24.477386 0.0 1.0 910.0 1
202 1 5.84384 -3.359646 0.0 1.0 910.0 1
203 1 -11.822333 16.813601 0.0 1.0 910.0 1
204 1 23.644743 13.838267 0.0 1.0 910.0 1
205 1 -4.873668 9.78161 0.0 1.0 910.0 1
206 1 12.470729 -9.795605 0.0 1.0 910.0 1
207 1 -16.443218 22.019876 0.0 1.0 910.0 1
208 1 3.635381 21.548991 0.0 1.0 910.0 1
209 1 1.894963 13.779999 0.0 1.0 910.0 1
210 1 4.527319 21.096863 0.0 1.0 910.0 1
211 1 0.371049 -11.9328 0.0 1.0 910.0 1
212 1 0.447761 -22.646101 0.0 1.0 910.0 1
213 1 22.557663 -14.932104 0.0 1.0 910.0 1
214 1 3.940475 8.963041 0.0 1.0 910.0 1
215 1 17.311918 15.354461 0.0 1.0 910.0 1
216 1 -22.660381 -6.26179 0.0 1.0 910.0 1
217 1 10.37214 13.843909 0.0 1.0 910.0 1
218 1 -21.220131 10.255846 0.0 1.0 910.0 1
219 1 19.162466 -11.387075 0.0 1.0 910.0 1
220 1 22.17186 -4.715094 0.0 1.0 910.0 1
221 1 -16.664536 -16.498552 0.0 1.0 910.0 1
222 1 -13.571328 10.317603 0.0 1.0 910.0 1
223 1 -18.789671 -1.861059 0.0 1.0 910.0 1
224 1 23.831155 -11.369673 0.0 1.0 910.0 1
225 1 0.034026 5.634544 0.0 1.0 910.0 1
226 1 -8.210442 15.405794 0.0 1.0 910.0 1
227 1 -13.674681 -23.562853 0.0 1.0 910.0 1
228 1 -20.044826 -16.514515 0.0 1.0 910.0 1
229 1 0.752072 -1.449659 0.0 1.0 910.0 1
230 1 23.247597 18.025293 0.0 1.0 910.0 1
231 1 16.046546 -4.398764 0.0 1.0 910.0 1
232 1 -23.567822 23.476616 0.0 1.0 910.0 1
233 1 -22.687178 -9.505284 0.0 1.0 910.0 1
234 1 22.650076 4.89644 0.0 1.0 910.0 1
235 1 19.916767 15.176711 0.0 1.0 910.0 1
236 1 -23.63481 -12.203711 0.0 1.0 910.0 1
237 1 7.09674 -15.618242 0.0 1.0 910.0 1
238 1 16.956116 -20.033691 0.0 1.0 910.0 1
239 1 -12.500868 6.669002 0.0 1.0 910.0 1
240 1 4.573601 22.646545 0.0 1.0 910.0 1
241 1 -4.35443 -15.198123 0.0 1.0 910.0 1
242 1 -18.342147 1.397595 0.0 1.0 910.0 1
243 1 11.977873 23.61375 0.0 1.0 910.0 1
244 1 15.638527 12.198092 0.0 1.0 910.0 1
245 1 14.780468 -10.828583 0.0 1.0 910.0 1
246 1 6.159946 1.999456 0.0 1.0 910.0 1
247 1 21.980182 -22.491426 0.0 1.0 910.0 1
248 1 -4.443597 7.839007 0.0 1.0 910.0 1
249 1 -7.413373 21.648587 0.0 1.0 910.0 1
250 1 4.626745 -9.435391 0.0 1.0 910.0 1
251 1 -19.931533 18.840843 0.0 1.0 910.0 1
252 1 22.636931 -12.912125 0.0 1.0 910.0 1
253 1 1.738012 16.565993 0.0 1.0 910.0 1
254 1 8.59107 3.071687 0.0 1.0 910.0 1
255 1 14.68821 12.611325 0.0 1.0 910.0 1
256 1 2.841071 -13.670548 0.0 1.0 910.0 1
257 1 1.676037 -1.067857 0.0 1.0 910.0 1
258 1 0.111527 15.236089 0.0 1.0 910.0 1
259 1 -8.8442 -18.077404 0.0 1.0 910.0 1
260 1 24.475633 10.307963 0.0 1.0 910.0 1
261 1 -7.726416 -10.018226 0.0 1.0 910.0 1
262 1 -11.458057 -7.361737 0.0 1.0 910.0 1
263 1 -3.084301 -18.422677 0.0 1.0 910.0 1
264 1 22.393423 3.020972 0.0 1.0 910.0 1
265 1 -23.65762 22.480229 0.0 1.0 910.0 1
266 1 -12.611482 4.849 0.0 1.0 910.0 1
267 1 14.530492 22.794558 0.0 1.0 910.0 1
268 1 -22.224959 8.396009 0.0 1.0 910.0 1
269 1 -10.857389 -9.534114 0.0 1.0 910.0 1
270 1 -19.936591 -15.50075 0.0 1.0 910.0 1
271 1 22.161174 -20.518197 0.0 1.0 910.0 1
272 1 19.881403 -24.475246 0.0 1.0 910.0 1
273 1 -1.833739 -23.340799 0.0 1.0 910.0 1
274 1 10.101214 12.883029 0.0 1.0 910.0 1
275 1 16.505303 -11.301545 0.0 1.0 910.0 1
276 1 14.350531 18.553366 0.0 1.0 910.0 1
277 1 -5.60843 -1.691688 0.0 1.0 910.0 1
278 1 0.631706 -2.442289 0.0 1.0 910.0 1
279 1 -2.253751 -5.85709 0.0 1.0 910.0 1
280 1 -19.758005 -1.611341 0.0 1.0 910.0 1
281 1 -3.16004 19.632315 0.0 1.0 910.0 1
282 1 -22.741861 14.643354 0.0 1.0 910.0 1
283 1 -22.464465 -24.475 0.0 1.0 910.0 1
284 1 -22.736087 10.334909 0.0 1.0 910.0 1
285 1 6.304882 -16.228843 0.0 1.0 910.0 1
286 1 -0.41437 -20.842823 0.0 1.0 910.0 1
287 1 2.047516 2.520862 0.0 1.0 910.0 1
288 1 -8.305818 -7.658674 0.0 1.0 910.0 1
289 1 -7.273982 -9.126684 0.0 1.0 910.0 1
290 1 8.410031 -8.249604 0.0 1.0 910.0 1
291 1 -19.845326 -7.909509 0.0 1.0 910.0 1
292 1 3.935303 -3.885635 0.0 1.0 910.0 1
293 1 -3.64956 -24.477107 0.0 1.0 910.0 1
294 1 -16.574164 -21.260817 0.0 1.0 910.0 1
295 1 13.295831 7.026478 0.0 1.0 910.0 1
296 1 -10.828548 -20.759599 0.0 1.0 910.0 1
297 1 -12.803588 22.46965 0.0 1.0 910.0 1
298 1 16.525533 22.725228 0.0 1.0 910.0 1
299 1 -2.983745 -1.110284 0.0 1.0 910.0 1
300 1 -5.428045 -9.888428 0.0 1.0 910.0 1
301 1 -0.60794 -5.944129 0.0 1.0 910.0 1
302 1 -14.999127 24.475003 0.0 1.0 910.0 1
303 1 18.875337 17.495214 0.0 1.0 910.0 1
304 1 -19.751261 -23.623755 0.0 1.0 910.0 1
305 1 23.150545 -21.190834 0.0 1.0 910.0 1
306 1 -21.014954 0.052099 0.0 1.0 910.0 1
307 1 -16.084544 -10.139422 0.0 1.0 910.0 1
308 1 -2.264283 -12.301922 0.0 1.0 910.0 1
309 1 -12.903092 1.97816 0.0 1.0 910.0 1
310 1 21.756793 21.46542 0.0 1.0 910.0 1
311 1 24.474986 -15.132634 0.0 1.0 910.0 1
312 1 24.372294 18.386464 0.0 1.0 910.0 1
313 1 -11.789668 4.279246 0.0 1.0 910.0 1
314 1 -17.093828 -15.480235 0.0 1.0 910.0 1
315 1 -2.792953 -7.333282 0.0 1.0 910.0 1
316 1 -14.004524 13.051459 0.0 1.0 910.0 1
317 1 15.973777 -0.771835 0.0 1.0 910.0 1
318 1 4.569259 18.770375 0.0 1.0 910.0 1
319 1 -24.475 -8.412429 0.0 1.0 910.0 1
320 1 14.008148 11.041446 0.0 1.0 910.0 1
321 1 -9.604052 -14.38193 0.0 1.0 910.0 1
322 1 20.743538 -3.414418 0.0 1.0 910.0 1
323 1 -7.345025 12.854634 0.0 1.0 910.0 1
324 1 -19.156432 -22.716922 0.0 1.0 910.0 1
325 1 -2.487556 -8.288476 0.0 1.0 910.0 1
326 1 12.929978 15.31859 0.0 1.0 910.0 1
327 1 11.358699 7.170128 0.0 1.0 910.0 1
328 1 15.354773 -17.206957 0.0 1.0 910.0 1
329 1 -8.921484 19.062864 0.0 1.0 910.0 1
330 1 0.215554 7.089881 0.0 1.0 910.0 1
331 1 -12.546562 -3.630107 0.0 1.0 910.0 1
332 1 -24.475 7.209156 0.0 1.0 910.0 1
333 1 8.68354 17.261582 0.0 1.0 910.0 1
334 1 9.380435 -22.789216 0.0 1.0 910.0 1
335 1 -5.817735 -19.647148 0.0 1.0 910.0 1
336 1 -15.236768 -0.967144 0.0 1.0 910.0 1
337 1 15.758092 -1.747296 0.0 1.0 910.0 1
338 1 -11.40769 19.129785 0.0 1.0 910.0 1
339 1 16.58416 24.4807 0.0 1.0 910.0 1
340 1 0.002726 -6.735314 0.0 1.0 910.0 1
341 1 13.201256 10.389038 0.0 1.0 910.0 1
342 1 -2.790357 -16.44163 0.0 1.0 910.0 1
343 1 -23.632978 -11.121972 0.0 1.0 910.0 1
344 1 23.12983 3.697425 0.0 1.0 910.0 1
345 1 -21.040256 14.769844 0.0 1.0 910.0 1
346 1 15.526894 22.727392 0.0 1.0 910.0 1
347 1 7.326734 -5.904575 0.0 1.0 910.0 1
348 1 14.71356 -24.474858 0.0 1.0 910.0 1
349 1 24.476108 9.309392 0.0 1.0 910.0 1
350 1 18.520989 22.689933 0.0 1.0 910.0 1
351 1 14.953864 -14.552852 0.0 1.0 910.0 1
352 1 -20.095172 -20.739421 0.0 1.0 910.0 1
353 1 23.034456 -5.219291 0.0 1.0 910.0 1
354 1 -4.119245 2.933087 0.0 1.0 910.0 1
355 1 -8.238376 12.405322 0.0 1.0 910.0 1
356 1 12.171672 2.660495 0.0 1.0 910.0 1
357 1 3.0335 11.386396 0.0 1.0 910.0 1
358 1 5.800855 5.773799 0.0 1.0 910.0 1
359 1 8.149153 15.244753 0.0 1.0 910.0 1
360 1 20.57745 24.47715 0.0 1.0 910.0 1
361 1 -19.008365 8.709294 0.0 1.0 910.0 1
362 1 6.479505 12.969444 0.0 1.0 910.0 1
363 1 21.944681 7.707156 0.0 1.0 910.0 1
364 1 14.444994 -18.989711 0.0 1.0 910.0 1
365 1 -15.136193 -2.124147 0.0 1.0 910.0 1
366 1 17.939316 8.394831 0.0 1.0 910.0 1
367 1 -4.304973 0.412492 0.0 1.0 910.0 1
368 1 -13.164256 -19.66237 0.0 1.0 910.0 1
369 1 -6.103857 -21.642665 0.0 1.0 910.0 1
370 1 -21.770033 -12.226059 0.0 1.0 910.0 1
371 1 -14.81851 -13.844294 0.0 1.0 910.0 1
372 1 6.454262 -4.151074 0.0 1.0 910.0 1
373 1 -14.380813 -0.450098 0.0 1.0 910.0 1
374 1 -9.929426 -1.242374 0.0 1.0 910.0 1
375 1 22.9037 -19.848469 0.0 1.0 910.0 1
376 1 6.598126 2.907438 0.0 1.0 910.0 1
377 1 -24.475004 19.947517 0.0 1.0 910.0 1
378 1 16.760191 -1.388447 0.0 1.0 910.0 1
379 1 -20.91116 -16.01505 0.0 1.0 910.0 1
380 1 -6.426807 -4.212268 0.0 1.0 910.0 1
381 1 -11.230285 -21.675335 0.0 1.0 910.0 1
382 1 17.48585 -22.726354 0.0 1.0 910.0 1
383 1 16.478839 2.588324 0.0 1.0 910.0 1
384 1 4.096698 -6.851299 0.0 1.0 910.0 1
385 1 -12.371792 -16.890017 0.0 1.0 910.0 1
386 1 -4.921003 -24.475 0.0 1.0 910.0 1
387 1 -21.152588 8.501781 0.0 1.0 910.0 1
388 1 -5.319511 19.233209 0.0 1.0 910.0 1
389 1 19.071993 -12.382786 0.0 1.0 910.0 1
390 1 -0.566819 -3.806577 0.0 1.0 910.0 1
391 1 8.119197 -18.413417 0.0 1.0 910.0 1
392 1 16.522547 -6.117925 0.0 1.0 910.0 1
393 1 17.254487 -11.982907 0.0 1.0 910.0 1
394 1 6.303211 -24.475152 0.0 1.0 910.0 1
395 1 -23.374052 3.666863 0.0 1.0 910.0 1
396 1 3.372941 -22.427227 0.0 1.0 910.0 1
397 1 14.358676 -4.018337 0.0 1.0 910.0 1
398 1 10.006959 -12.263431 0.0 1.0 910.0 1
399 1 8.660036 -9.896253 0.0 1.0 910.0 1
400 1 -6.254232 14.629005 0.0 1.0 910.0 1
401 1 -16.001245 -2.626598 0.0 1.0 910.0 1
402 1 -10.960673 9.899331 0.0 1.0 910.0 1
403 1 21.338535 18.780582 0.0 1.0 910.0 1
404 1 14.624803 -8.154371 0.0 1.0 910.0 1
405 1 -15.191093 -7.498084 0.0 1.0 910.0 1
406 1 -18.814407 6.840735 0.0 1.0 910.0 1
407 1 12.945209 6.090026 0.0 1.0 910.0 1
408 1 3.27927 -2.261046 0.0 1.0 910.0 1
409 1 16.630783 21.73296 0.0 1.0 910.0 1
410 1 -5.475541 24.47739 0.0 1.0 910.0 1
411 1 9.56525 -1.115816 0.0 1.0 910.0 1
412 1 20.705423 1.200406 0.0 1.0 910.0 1
413 1 -23.622142 13.038118 0.0 1.0 910.0 1
414 1 4.350448 -22.636498 0.0 1.0 910.0 1
415 1 11.002032 -8.388976 0.0 1.0 910.0 1
416 1 4.688072 13.512167 0.0 1.0 910.0 1
417 1 -0.664604 2.200652 0.0 1.0 910.0 1
418 1 -10.739088 -12.291214 0.0 1.0 910.0 1
419 1 19.303538 -21.892699 0.0 1.0 910.0 1
420 1 -10.151939 9.311039 0.0 1.0 910.0 1
421 1 5.554052 -1.67232 0.0 1.0 910.0 1
422 1 7.445037 -4.018883 0.0 1.0 910.0 1
423 1 18.224983 14.947623 0.0 1.0 910.0 1
424 1 6.744496 1.16872 0.0 1.0 910.0 1
425 1 -19.531063 3.023812 0.0 1.0 910.0 1
426 1 23.608064 -23.977965 0.0 1.0 910.0 1
427 1 19.61742 -4.838349 0.0 1.0 910.0 1
428 1 -9.877656 -4.307144 0.0 1.0 910.0 1
429 1 -16.482104 16.186069 0.0 1.0 910.0 1
430 1 -17.609137 -23.634398 0.0 1.0 910.0 1
431 1 -19.317884 12.40621 0.0 1.0 910.0 1
432 1 -11.785707 -2.981286 0.0 1.0 910.0 1
433 1 -1.425204 -4.336335 0.0 1.0 910.0 1
434 1 -15.056396 12.911667 0.0 1.0 910.0 1
435 1 -13.222789 -8.572846 0.0 1.0 910.0 1
436 1 -20.660497 9.427106 0.0 1.0 910.0 1
437 1 0.331157 21.14505 0.0 1.0 910.0 1
438 1 -5.134172 -14.57301 0.0 1.0 910.0 1
439 1 -20.519347 -19.64753 0.0 1.0 910.0 1
440 1 -18.938678 -11.714321 0.0 1.0 910.0 1
441 1 -17.033381 -10.665928 0.0 1.0 910.0 1
442 1 15.713525 -24.468293 0.0 1.0 910.0 1
443 1 13.222308 -6.729965 0.0 1.0 910.0 1
444 1 13.127248 -1.665045 0.0 1.0 910.0 1
445 1 -23.223698 1.707926 0.0 1.0 910.0 1
446 1 1.202119 -9.097976 0.0 1.0 910.0 1
447 1 -14.513943 22.629953 0.0 1.0 910.0 1
448 1 22.291859 18.320171 0.0 1.0 910.0 1
449 1 9.372316 -24.479064 0.0 1.0 910.0 1
450 1 22.952177 -10.893671 0.0 1.0 910.0 1
451 1 -22.654362 -5.181419 0.0 1.0 910.0 1
452 1 19.608929 18.172405 0.0 1.0 910.0 1
453 1 -13.395819 -4.159209 0.0 1.0 910.0 1
454 1 -14.280449 5.92724 0.0 1.0 910.0 1
455 1 -15.33192 4.55793 0.0 1.0 910.0 1
456 1 -1.537186 6.736357 0.0 1.0 910.0 1
457 1 -2.865607 9.065918 0.0 1.0 910.0 1
458 1 10.201862 -11.283425 0.0 1.0 910.0 1
459 1 -2.466085 7.106456 0.0 1.0 910.0 1
460 1 -18.270749 14.443512 0.0 1.0 910.0 1
461 1 5.691875 -8.056581 0.0 1.0 910.0 1
462 1 20.194079 7.647209 0.0 1.0 910.0 1
463 1 2.490564 -0.463679 0.0 1.0 910.0 1
464 1 -11.925459 7.486798 0.0 1.0 910.0 1
465 1 6.878107 8.274832 0.0 1.0 910.0 1
466 1 18.880121 -4.164131 0.0 1.0 910.0 1
467 1 2.45038 -20.47237 0.0 1.0 910.0 1
468 1 -24.47455 0.234292 0.0 1.0 910.0 1
469 1 11.757306 -9.094715 0.0 1.0 910.0 1
470 1 9.550934 -6.754877 0.0 1.0 910.0 1
471 1 11.187766 -11.116148 0.0 1.0 910.0 1
472 1 23.497951 -3.332394 0.0 1.0 910.0 1
473 1 -19.662888 19.839186 0.0 1.0 910.0 1
474 1 0.55289 3.719319 0.0 1.0 910.0 1
475 1 -22.511776 24.475127 0.0 1.0 910.0 1
476 1 0.641861 17.028199 0.0 1.0 910.0 1
477 1 -14.869168 -20.461237 0.0 1.0 910.0 1
478 1 -1.147775 -0.38908 0.0 1.0 910.0 1
479 1 21.761774 16.688749 0.0 1.0 910.0 1
480 1 -2.184964 -11.295384 0.0 1.0 910.0 1
481 1 19.365696 7.087069 0.0 1.0 910.0 1
482 1 19.230661 4.860453 0.0 1.0 910.0 1
483 1 -12.241874 -21.645118 0.0 1.0 910.0 1
484 1 -7.303065 -3.731048 0.0 1.0 910.0 1
485 1 6.630971 -7.713443 0.0 1.0 910.0 1
486 1 11.97625 -20.01982 0.0 1.0 910.0 1
487 1 -1.680452 7.725887 0.0 1.0 910.0 1
488 1 6.580848 -1.5014 0.0 1.0 910.0 1
489 1 5.285414 18.037213 0.0 1.0 910.0 1
490 1 -5.707515 -18.601167 0.0 1.0 910.0 1
491 1 13.242905 4.318601 0.0 1.0 910.0 1
492 1 -15.803519 17.600256 0.0 1.0 910.0 1
493 1 9.061102 -4.673692 0.0 1.0 910.0 1
494 1 10.591367 20.951483 0.0 1.0 910.0 1
495 1 1.108957 -10.182553 0.0 1.0 910.0 1
496 1 1.934067 -10.746696 0.0 1.0 910.0 1
497 1 -9.25985 5.833512 0.0 1.0 910.0 1
498 1 -11.563307 3.304974 0.0 1.0 910.0 1
499 1 -14.062007 14.816645 0.0 1.0 910.0 1
500 1 -22.766855 -18.193133 0.0 1.0 910.0 1
501 1 -12.974352 7.633143 0.0 1.0 910.0 1
502 1 -17.95441 -7.945007 0.0 1.0 910.0 1
503 1 6.515 19.230363 0.0 1.0 910.0 1
504 1 8.660602 -7.282096 0.0 1.0 910.0 1
505 1 -1.45249 1.585996 0.0 1.0 910.0 1
506 1 9.11462 12.724397 0.0 1.0 910.0 1
507 1 -17.900253 -20.941779 0.0 1.0 910.0 1
508 1 9.081719 -8.98963 0.0 1.0 910.0 1
509 1 22.812438 7.210178 0.0 1.0 910.0 1
510 1 -21.774878 19.227168 0.0 1.0 910.0 1
511 1 17.123619 7.81666 0.0 1.0 910.0 1
512 1 7.579272 -1.37309 0.0 1.0 910.0 1
513 1 15.410337 7.682802 0.0 1.0 910.0 1
514 1 -9.885328 -3.260552 0.0 1.0 910.0 1
515 1 2.800277 21.000555 0.0 1.0 910.0 1
516 1 -8.392842 9.371677 0.0 1.0 910.0 1
517 1 -9.242491 7.835524 0.0 1.0 910.0 1
518 1 7.41539 -20.995017 0.0 1.0 910.0 1
519 1 -21.816373 -21.662674 0.0 1.0 910.0 1
520 1 3.626154 3.748554 0.0 1.0 910.0 1
521 1 12.596505 18.286634 0.0 1.0 910.0 1
522 1 8.643064 -14.530505 0.0 1.0 910.0 1
523 1 -19.257907 5.859919 0.0 1.0 910.0 1
524 1 20.759325 21.521236 0.0 1.0 910.0 1
525 1 -11.798512 -6.367373 0.0 1.0 910.0 1
526 1 -9.996045 -13.421261 0.0 1.0 910.0 1
527 1 -18.039112 -13.351276 0.0 1.0 910.0 1
528 1 9.43854 9.74596 0.0 1.0 910.0 1
529 1 -1.073913 -8.23097 0.0 1.0 910.0 1
530 1 -10.200654 16.563757 0.0 1.0 910.0 1
531 1 12.661654 7.799226 0.0 1.0 910.0 1
532 1 -6.832255 -20.926018 0.0 1.0 910.0 1
533 1 -14.767601 8.88759 0.0 1.0 910.0 1
534 1 -1.415336 -12.829715 0.0 1.0 910.0 1
535 1 -17.300977 7.933829 0.0 1.0 910.0 1
536 1 -3.96485 -1.303019 0.0 1.0 910.0 1
537 1 -11.803845 -1.981495 0.0 1.0 910.0 1
538 1 16.663629 20.030364 0.0 1.0 910.0 1
539 1 -4.016703 -18.785291 0.0 1.0 910.0 1
540 1 20.489464 22.482164 0.0 1.0 910.0 1
541 1 3.285055 4.927145 0.0 1.0 910.0 1
542 1 1.313821 -7.104568 0.0 1.0 910.0 1
543 1 -5.735697 8.995801 0.0 1.0 910.0 1
544 1 -11.732768 -12.180154 0.0 1.0 910.0 1
545 1 -8.211274 -15.459482 0.0 1.0 910.0 1
546 1 17.602085 17.265324 0.0 1.0 910.0 1
547 1 15.149468 -13.554254 0.0 1.0 910.0 1
548 1 -11.828033 -20.731921 0.0 1.0 910.0 1
549 1 -7.146928 -11.988218 0.0 1.0 910.0 1
550 1 24.476602 -12.132994 0.0 1.0 910.0 1
551 1 6.707354 -17.422342 0.0 1.0 910.0 1
552 1 7.486533 9.859803 0.0 1.0 910.0 1
553 1 18.755924 -19.177692 0.0 1.0 910.0 1
554 1 18.798212 3.860619 0.0 1.0 910.0 1
555 1 -20.823179 -11.693333 0.0 1.0 910.0 1
556 1 5.724262 -17.236674 0.0 1.0 910.0 1
557 1 23.609712 9.808133 0.0 1.0 910.0 1
558 1 0.334152 -15.8942 0.0 1.0 910.0 1
559 1 8.536894 -19.322218 0.0 1.0 910.0 1
560 1 2.46595 -22.846757 0.0 1.0 910.0 1
561 1 14.850415 3.186912 0.0 1.0 910.0 1
562 1 -4.559414 19.882403 0.0 1.0 910.0 1
563 1 -14.055838 19.960282 0.0 1.0 910.0 1
564 1 13.997614 -14.84536 0.0 1.0 910.0 1
565 1 -0.390992 -10.372083 0.0 1.0 910.0 1
566 1 -9.830626 3.181317 0.0 1.0 910.0 1
567 1 10.383696 -15.081607 0.0 1.0 910.0 1
568 1 -19.004699 -20.845778 0.0 1.0 910.0 1
569 1 19.206604 20.822472 0.0 1.0 910.0 1
570 1 -5.717404 -5.939856 0.0 1.0 910.0 1
571 1 -14.278401 -3.68959 0.0 1.0 910.0 1
572 1 -5.572449 -3.694114 0.0 1.0 910.0 1
573 1 -16.917246 15.285719 0.0 1.0 910.0 1
574 1 6.160701 21.663549 0.0 1.0 910.0 1
575 1 11.608419 -3.738932 0.0 1.0 910.0 1
576 1 0.97318 5.288847 0.0 1.0 910.0 1
577 1 -23.629211 -18.718662 0.0 1.0 910.0 1
578 1 11.654428 -0.915425 0.0 1.0 910.0 1
579 1 6.273073 0.136078 0.0 1.0 910.0 1
580 1 20.175098 8.709344 0.0 1.0 910.0 1
581 1 -3.62849 13.01729 0.0 1.0 910.0 1
582 1 -3.298653 21.620319 0.0 1.0 910.0 1
583 1 -8.152698 -4.257978 0.0 1.0 910.0 1
584 1 16.819666 -21.02432 0.0 1.0 910.0 1
585 1 -19.925755 -14.411539 0.0 1.0 910.0 1
586 1 -24.475002 15.640261 0.0 1.0 910.0 1
587 1 -19.893493 6.736912 0.0 1.0 910.0 1
588 1 14.677449 15.5748 0.0 1.0 910.0 1
589 1 -15.770232 7.261499 0.0 1.0 910.0 1
590 1 4.568683 3.373891 0.0 1.0 910.0 1
591 1 -13.316052 -21.542092 0.0 1.0 910.0 1
592 1 18.627991 -20.17681 0.0 1.0 910.0 1
593 1 -15.861991 20.290651 0.0 1.0 910.0 1
594 1 -13.635562 12.122044 0.0 1.0 910.0 1
595 1 4.145594 -18.001964 0.0 1.0 910.0 1
596 1 -2.679692 -9.321635 0.0 1.0 910.0 1
597 1 -24.475 14.640261 0.0 1.0 910.0 1
598 1 9.386648 13.686333 0.0 1.0 910.0 1
599 1 22.936511 -22.199308 0.0 1.0 910.0 1
600 1 -10.693163 2.671454 0.0 1.0 910.0 1
601 1 15.960765 -8.124351 0.0 1.0 910.0 1
602 1 9.592983 -14.218877 0.0 1.0 910.0 1
603 1 10.661322 -1.040171 0.0 1.0 910.0 1
604 1 -18.374077 7.826365 0.0 1.0 910.0 1
605 1 -2.665723 8.086189 0.0 1.0 910.0 1
606 1 -12.683358 -5.903258 0.0 1.0 910.0 1
607 1 -1.503792 -13.825293 0.0 1.0 910.0 1
608 1 24.475168 -2.526459 0.0 1.0 910.0 1
609 1 16.190625 18.53827 0.0 1.0 910.0 1
610 1 -1.29208 18.895045 0.0 1.0 910.0 1
611 1 22.166186 -5.714983 0.0 1.0 910.0 1
612 1 12.646425 -0.788743 0.0 1.0 910.0 1
613 1 8.812133 1.355505 0.0 1.0 910.0 1
614 1 -10.467281 1.697298 0.0 1.0 910.0 1
615 1 5.881542 8.196885 0.0 1.0 910.0 1
616 1 9.400678 6.773643 0.0 1.0 910.0 1
617 1 -3.200906 -13.84852 0.0 1.0 910.0 1
618 1 -14.625732 -23.254178 0.0 1.0 910.0 1
619 1 -13.951174 8.217351 0.0 1.0 910.0 1
620 1 -0.794054 4.404515 0.0 1.0 910.0 1
621 1 -3.62968 -0.347442 0.0 1.0 910.0 1
622 1 5.984413 4.730085 0.0 1.0 910.0 1
623 1 -11.997441 15.685775 0.0 1.0 910.0 1
624 1 8.701649 -17.574668 0.0 1.0 910.0 1
625 1 -19.265802 14.344185 0.0 1.0 910.0 1
626 1 10.472141 -19.028959 0.0 1.0 910.0 1
627 1 -20.973035 6.63385 0.0 1.0 910.0 1
628 1 -7.846999 24.475244 0.0 1.0 910.0 1
629 1 -14.640074 21.637952 0.0 1.0 910.0 1
630 1 7.028205 3.810153 0.0 1.0 910.0 1
631 1 -9.097067 12.929705 0.0 1.0 910.0 1
632 1 8.95878 -0.321384 0.0 1.0 910.0 1
633 1 14.289859 7.125399 0.0 1.0 910.0 1
634 1 -8.203294 16.405676 0.0 1.0 910.0 1
635 1 -23.622798 10.874652 0.0 1.0 910.0 1
636 1 5.44396 -12.811286 0.0 1.0 910.0 1
637 1 -22.696416 -10.589941 0.0 1.0 910.0 1
638 1 22.753498 22.405505 0.0 1.0 910.0 1
639 1 20.341263 18.85186 0.0 1.0 910.0 1
640 1 1.779152 -5.832363 0.0 1.0 910.0 1
641 1 -23.568612 2.685972 0.0 1.0 910.0 1
642 1 -18.007695 -12.27353 0.0 1.0 910.0 1
643 1 0.261533 -13.928447 0.0 1.0 910.0 1
644 1 8.291017 11.489284 0.0 1.0 910.0 1
645 1 17.525944 13.36791 0.0 1.0 910.0 1
646 1 12.815716 16.307767 0.0 1.0 910.0 1
647 1 -19.489842 20.94145 0.0 1.0 910.0 1
648 1 6.129048 -18.23749 0.0 1.0 910.0 1
649 1 -9.846354 24.475144 0.0 1.0 910.0 1
650 1 6.420157 -20.90031 0.0 1.0 910.0 1
651 1 -18.913436 -9.550866 0.0 1.0 910.0 1
652 1 -19.314087 17.084572 0.0 1.0 910.0 1
653 1 2.32799 12.094959 0.0 1.0 910.0 1
654 1 -22.70464 -11.67362 0.0 1.0 910.0 1
655 1 -12.41293 -10.283653 0.0 1.0 910.0 1
656 1 -21.904431 -23.608835 0.0 1.0 910.0 1
657 1 0.747501 -16.803884 0.0 1.0 910.0 1
658 1 -4.663325 -2.018496 0.0 1.0 910.0 1
659 1 4.286281 6.993866 0.0 1.0 910.0 1
660 1 -4.106169 10.422236 0.0 1.0 910.0 1
661 1 3.827978 -8.833601 0.0 1.0 910.0 1
662 1 22.56776 -2.829797 0.0 1.0 910.0 1
663 1 17.174485 4.462327 0.0 1.0 910.0 1
664 1 18.660645 19.970996 0.0 1.0 910.0 1
665 1 -3.156109 -4.379183 0.0 1.0 910.0 1
666 1 -3.963603 23.603326 0.0 1.0 910.0 1
667 1 -9.685909 -16.222248 0.0 1.0 910.0 1
668 1 -18.115682 10.683423 0.0 1.0 910.0 1
669 1 9.539392 -19.38863 0.0 1.0 910.0 1
670 1 17.745636 -20.647109 0.0 1.0 910.0 1
671 1 -24.475 -24.474986 0.0 1.0 910.0 1
672 1 -9.946153 -0.233021 0.0 1.0 910.0 1
673 1 3.692343 20.548856 0.0 1.0 910.0 1
674 1 -23.633837 -10.039109 0.0 1.0 910.0 1
675 1 13.892454 -17.821399 0.0 1.0 910.0 1
676 1 -10.023581 15.579573 0.0 1.0 910.0 1
677 1 24.477397 8.310961 0.0 1.0 910.0 1
678 1 -8.844348 22.648261 0.0 1.0 910.0 1
679 1 -15.403284 -14.736768 0.0 1.0 910.0 1
680 1 -20.389672 16.709497 0.0 1.0 910.0 1
681 1 -8.616297 -14.537202 0.0 1.0 910.0 1
682 1 15.146331 -23.562153 0.0 1.0 910.0 1
683 1 23.605713 15.900754 0.0 1.0 910.0 1
684 1 2.389767 17.324119 0.0 1.0 910.0 1
685 1 -17.011913 -8.504188 0.0 1.0 910.0 1
686 1 20.651335 19.801486 0.0 1.0 910.0 1
687 1 -18.043915 0.443118 0.0 1.0 910.0 1
688 1 19.781916 16.198967 0.0 1.0 910.0 1
689 1 6.878778 14.054458 0.0 1.0 910.0 1
690 1 -2.262153 -14.478179 0.0 1.0 910.0 1
691 1 1.307274 19.697875 0.0 1.0 910.0 1
692 1 -5.373359 5.107297 0.0 1.0 910.0 1
693 1 14.891959 13.588373 0.0 1.0 910.0 1
694 1 11.496959 -6.29299 0.0 1.0 910.0 1
695 1 12.144021 20.134497 0.0 1.0 910.0 1
696 1 -7.481625 19.575561 0.0 1.0 910.0 1
697 1 12.533448 22.72586 0.0 1.0 910.0 1
698 1 13.594991 5.253861 0.0 1.0 910.0 1
699 1 17.45965 -11.00425 0.0 1.0 910.0 1
700 1 10.66359 19.195937 0.0 1.0 910.0 1
701 1 17.673675 -10.027971 0.0 1.0 910.0 1
702 1 16.793386 16.678047 0.0 1.0 910.0 1
703 1 21.244459 10.657847 0.0 1.0 910.0 1
704 1 -11.086265 -11.307344 0.0 1.0 910.0 1
705 1 -3.716756 -22.494047 0.0 1.0 910.0 1
706 1 -12.083915 1.404687 0.0 1.0 910.0 1
707 1 6.750234 16.673381 0.0 1.0 910.0 1
708 1 18.102344 1.985885 0.0 1.0 910.0 1
709 1 -14.519528 -16.710917 0.0 1.0 910.0 1
710 1 7.876348 -21.882292 0.0 1.0 910.0 1
711 1 -11.920436 -17.868174 0.0 1.0 910.0 1
712 1 -15.002584 10.959109 0.0 1.0 910.0 1
713 1 2.529802 -23.844136 0.0 1.0 910.0 1
714 1 -2.327967 -2.858178 0.0 1.0 910.0 1
715 1 -0.582249 11.008882 0.0 1.0 910.0 1