header line input data

9477 atoms
2 atom types
6 bonds
1 bond types

-20.0 120.0 xlo xhi
-20.0 120.0 ylo yhi
-5.0 5.0 zlo zhi

Atoms

1 1 68.612787 51.667138 0.0 1.0 910.0 1
2 1 15.324526 44.937023 0.0 1.0 910.0 1
3 1 88.39227 78.192968 0.0 1.0 910.0 1
4 1 58.456942 49.074806 0.0 1.0 910.0 1
5 1 90.749806 27.612655 0.0 1.0 910.0 1
6 1 86.614581 4.137243 0.0 1.0 910.0 1
7 1 14.333263 41.147183 0.0 1.0 910.0 1
8 1 54.574995 64.951811 0.0 1.0 910.0 1
9 1 57.720131 92.988428 0.0 1.0 910.0 1
10 1 44.47221 23.104741 0.0 1.0 910.0 1
11 1 13.667601 18.386226 0.0 1.0 910.0 1
12 1 4.779962 85.74235 0.0 1.0 910.0 1
13 1 41.32356 90.194251 0.0 1.0 910.0 1
14 1 3.292568 26.683021 0.0 1.0 910.0 1
15 1 23.473343 45.930477 0.0 1.0 910.0 1
16 1 5.206159 54.434349 0.0 1.0 910.0 1
17 1 1.391278 25.60632 0.0 1.0 910.0 1
18 1 51.661773 86.724654 0.0 1.0 910.0 1
19 1 78.687573 79.592258 0.0 1.0 910.0 1
20 1 14.381361 7.347263 0.0 1.0 910.0 1
21 1 69.331149 97.737184 0.0 1.0 910.0 1
22 1 97.332388 53.364259 0.0 1.0 910.0 1
23 1 83.774753 27.903882 0.0 1.0 910.0 1
24 1 59.656563 74.468868 0.0 1.0 910.0 1
25 1 7.277499 60.687553 0.0 1.0 910.0 1
26 1 28.90141 74.404816 0.0 1.0 910.0 1
27 1 69.860105 96.788664 0.0 1.0 910.0 1
28 1 39.875861 21.42473 0.0 1.0 910.0 1
29 1 17.345144 34.47984 0.0 1.0 910.0 1
30 1 54.013645 51.324879 0.0 1.0 910.0 1
31 1 53.490648 93.99731 0.0 1.0 910.0 1
32 1 26.209918 13.215136 0.0 1.0 910.0 1
33 1 7.999894 22.81608 0.0 1.0 910.0 1
34 1 99.499894 70.598358 0.0 1.0 910.0 1
35 1 62.448193 20.747951 0.0 1.0 910.0 1
36 1 72.067065 56.301527 0.0 1.0 910.0 1
37 1 29.921973 66.796532 0.0 1.0 910.0 1
38 1 27.192729 58.263253 0.0 1.0 910.0 1
39 1 17.793577 90.906862 0.0 1.0 910.0 1
40 1 58.529749 68.038551 0.0 1.0 910.0 1
41 1 59.287918 61.652685 0.0 1.0 910.0 1
42 1 64.555686 47.688433 0.0 1.0 910.0 1
43 1 48.980782 5.118827 0.0 1.0 910.0 1
44 1 5.907557 84.218627 0.0 1.0 910.0 1
45 1 36.776747 83.549007 0.0 1.0 910.0 1
46 1 38.756531 19.257305 0.0 1.0 910.0 1
47 1 87.706656 13.525106 0.0 1.0 910.0 1
48 1 52.342557 22.484378 0.0 1.0 910.0 1
49 1 36.319839 82.56467 0.0 1.0 910.0 1
50 1 86.668258 17.291871 0.0 1.0 910.0 1
51 1 56.144652 36.216544 0.0 1.0 910.0 1
52 1 20.177381 49.700035 0.0 1.0 910.0 1
53 1 59.532154 42.060862 0.0 1.0 910.0 1
54 1 64.160709 3.922149 0.0 1.0 910.0 1
55 1 27.904587 84.086167 0.0 1.0 910.0 1
56 1 42.526846 36.550593 0.0 1.0 910.0 1
57 1 30.978356 81.62671 0.0 1.0 910.0 1
58 1 69.140527 29.336015 0.0 1.0 910.0 1
59 1 10.900466 4.678874 0.0 1.0 910.0 1
60 1 92.826245 23.766822 0.0 1.0 910.0 1
61 1 94.78031 42.146939 0.0 1.0 910.0 1
62 1 56.972979 22.549506 0.0 1.0 910.0 1
63 1 9.935787 27.137571 0.0 1.0 910.0 1
64 1 8.562485 70.768543 0.0 1.0 910.0 1
65 1 87.564136 87.797915 0.0 1.0 910.0 1
66 1 28.871607 78.210788 0.0 1.0 910.0 1
67 1 73.428239 17.182466 0.0 1.0 910.0 1
68 1 18.512682 12.780833 0.0 1.0 910.0 1
69 1 80.085613 4.129289 0.0 1.0 910.0 1
70 1 18.636112 11.690959 0.0 1.0 910.0 1
71 1 45.592234 65.406646 0.0 1.0 910.0 1
72 1 69.581462 1.500095 0.0 1.0 910.0 1
73 1 97.743257 72.777944 0.0 1.0 910.0 1
74 1 27.744441 57.31822 0.0 1.0 910.0 1
75 1 26.037968 20.628479 0.0 1.0 910.0 1
76 1 20.320876 83.049564 0.0 1.0 910.0 1
77 1 69.644391 14.283629 0.0 1.0 910.0 1
78 1 38.097149 67.712339 0.0 1.0 910.0 1
79 1 13.874827 32.420305 0.0 1.0 910.0 1
80 1 69.355594 24.453911 0.0 1.0 910.0 1
81 1 80.539657 83.657482 0.0 1.0 910.0 1
82 1 37.635051 47.895434 0.0 1.0 910.0 1
83 1 28.284964 58.264625 0.0 1.0 910.0 1
84 1 48.212768 18.888587 0.0 1.0 910.0 1
85 1 33.136576 81.954033 0.0 1.0 910.0 1
86 1 67.344145 55.379824 0.0 1.0 910.0 1
87 1 12.549086 49.650062 0.0 1.0 910.0 1
88 1 84.611197 62.479331 0.0 1.0 910.0 1
89 1 20.620326 79.441413 0.0 1.0 910.0 1
90 1 31.174501 31.894121 0.0 1.0 910.0 1
91 1 53.092522 41.123566 0.0 1.0 910.0 1
92 1 70.034629 22.657242 0.0 1.0 910.0 1
93 1 46.648944 16.4447 0.0 1.0 910.0 1
94 1 70.529751 25.845768 0.0 1.0 910.0 1
95 1 38.61234 40.631667 0.0 1.0 910.0 1
96 1 27.757837 55.42556 0.0 1.0 910.0 1
97 1 38.815899 21.133744 0.0 1.0 910.0 1
98 1 93.976326 25.606363 0.0 1.0 910.0 1
99 1 76.983198 99.499896 0.0 1.0 910.0 1
100 1 52.989263 63.436366 0.0 1.0 910.0 1
101 1 11.411355 0.50005 0.0 1.0 910.0 1
102 1 74.298522 63.984842 0.0 1.0 910.0 1
103 1 72.96744 10.606447 0.0 1.0 910.0 1
104 1 70.327996 36.797989 0.0 1.0 910.0 1
105 1 71.0251 75.443749 0.0 1.0 910.0 1
106 1 3.270535 21.209338 0.0 1.0 910.0 1
107 1 33.287259 78.192018 0.0 1.0 910.0 1
108 1 37.66934 19.257759 0.0 1.0 910.0 1
109 1 11.417733 64.518372 0.0 1.0 910.0 1
110 1 53.773567 56.32638 0.0 1.0 910.0 1
111 1 88.703065 72.635774 0.0 1.0 910.0 1
112 1 68.455286 31.084729 0.0 1.0 910.0 1
113 1 10.382876 47.747398 0.0 1.0 910.0 1
114 1 57.116482 15.003373 0.0 1.0 910.0 1
115 1 12.920285 3.848395 0.0 1.0 910.0 1
116 1 47.523413 17.121212 0.0 1.0 910.0 1
117 1 17.207524 76.120099 0.0 1.0 910.0 1
118 1 82.792759 98.103697 0.0 1.0 910.0 1
119 1 34.119007 28.177571 0.0 1.0 910.0 1
120 1 76.32148 50.105211 0.0 1.0 910.0 1
121 1 24.632196 32.73598 0.0 1.0 910.0 1
122 1 70.445365 99.4999 0.0 1.0 910.0 1
123 1 97.747898 11.340905 0.0 1.0 910.0 1
124 1 12.504601 93.687413 0.0 1.0 910.0 1
125 1 14.319248 38.450243 0.0 1.0 910.0 1
126 1 90.641328 23.827579 0.0 1.0 910.0 1
127 1 8.968015 55.392194 0.0 1.0 910.0 1
128 1 43.603715 69.489199 0.0 1.0 910.0 1
129 1 4.656577 86.831993 0.0 1.0 910.0 1
130 1 68.149519 84.859998 0.0 1.0 910.0 1
131 1 56.865638 11.445811 0.0 1.0 910.0 1
132 1 34.779365 86.121005 0.0 1.0 910.0 1
133 1 79.463557 83.82948 0.0 1.0 910.0 1
134 1 73.7232 34.086509 0.0 1.0 910.0 1
135 1 54.542829 53.160008 0.0 1.0 910.0 1
136 1 84.64718 55.390711 0.0 1.0 910.0 1
137 1 56.318902 84.604861 0.0 1.0 910.0 1
138 1 65.899557 9.505761 0.0 1.0 910.0 1
139 1 75.059793 78.457373 0.0 1.0 910.0 1
140 1 28.290074 67.739813 0.0 1.0 910.0 1
141 1 58.757421 41.323045 0.0 1.0 910.0 1
142 1 51.016131 28.92481 0.0 1.0 910.0 1
143 1 33.136475 6.08883 0.0 1.0 910.0 1
144 1 1.996336 70.566986 0.0 1.0 910.0 1
145 1 99.499897 88.686378 0.0 1.0 910.0 1
146 1 45.731038 20.641806 0.0 1.0 910.0 1
147 1 10.509143 94.58422 0.0 1.0 910.0 1
148 1 95.81188 14.587768 0.0 1.0 910.0 1
149 1 17.448257 63.228438 0.0 1.0 910.0 1
150 1 76.270464 5.042759 0.0 1.0 910.0 1
151 1 28.837309 89.021591 0.0 1.0 910.0 1
152 1 96.845946 54.872613 0.0 1.0 910.0 1
153 1 28.840227 33.591797 0.0 1.0 910.0 1
154 1 7.131563 5.62481 0.0 1.0 910.0 1
155 1 57.799428 86.196144 0.0 1.0 910.0 1
156 1 10.163375 66.043688 0.0 1.0 910.0 1
157 1 42.909461 87.796181 0.0 1.0 910.0 1
158 1 67.830906 85.899462 0.0 1.0 910.0 1
159 1 91.708117 79.127559 0.0 1.0 910.0 1
160 1 63.970969 58.305625 0.0 1.0 910.0 1
161 1 63.689621 31.295645 0.0 1.0 910.0 1
162 1 0.500053 23.96087 0.0 1.0 910.0 1
163 1 4.18642 91.178417 0.0 1.0 910.0 1
164 1 19.09766 87.68054 0.0 1.0 910.0 1
165 1 54.007653 23.98143 0.0 1.0 910.0 1
166 1 88.944905 50.352278 0.0 1.0 910.0 1
167 1 99.503382 57.457225 0.0 0.9989755635540889 910.0 1
168 1 28.892352 49.745349 0.0 1.0 910.0 1
169 1 59.553653 44.84075 0.0 1.0 910.0 1
170 1 23.401267 25.648055 0.0 1.0 910.0 1
171 1 54.052918 15.101825 0.0 1.0 910.0 1
172 1 28.987506 10.437249 0.0 1.0 910.0 1
173 1 63.178436 57.547031 0.0 1.0 910.0 1
174 1 76.56126 65.764643 0.0 1.0 910.0 1
175 1 25.00613 58.261644 0.0 1.0 910.0 1
176 1 52.538509 5.742912 0.0 1.0 910.0 1
177 1 91.001466 75.940989 0.0 1.0 910.0 1
178 1 70.161708 29.724276 0.0 1.0 910.0 1
179 1 28.30322 69.633074 0.0 1.0 910.0 1
180 1 58.497617 60.886793 0.0 1.0 910.0 1
181 1 60.691646 64.528067 0.0 1.0 910.0 1
182 1 53.595139 38.999763 0.0 1.0 910.0 1
183 1 95.879847 48.109483 0.0 1.0 910.0 1
184 1 62.915153 54.673664 0.0 1.0 910.0 1
185 1 29.87799 33.25778 0.0 1.0 910.0 1
186 1 93.924688 95.251781 0.0 1.0 910.0 1
187 1 28.84207 68.688877 0.0 1.0 910.0 1
188 1 82.61479 92.056827 0.0 1.0 910.0 1
189 1 78.651988 61.511489 0.0 1.0 910.0 1
190 1 51.098837 11.441022 0.0 1.0 910.0 1
191 1 0.500054 18.479185 0.0 1.0 910.0 1
192 1 37.533859 64.885096 0.0 1.0 910.0 1
193 1 88.463282 37.00011 0.0 1.0 910.0 1
194 1 79.529279 90.96485 0.0 1.0 910.0 1
195 1 62.541519 74.53556 0.0 1.0 910.0 1
196 1 90.419902 5.078052 0.0 1.0 910.0 1
197 1 15.893672 72.89902 0.0 1.0 910.0 1
198 1 20.289997 5.868032 0.0 1.0 910.0 1
199 1 8.548432 86.177021 0.0 1.0 910.0 1
200 1 39.092488 79.878706 0.0 1.0 910.0 1
201 1 9.343746 2.220831 0.0 1.0 910.0 1
202 1 11.636783 6.425738 0.0 1.0 910.0 1
203 1 65.157517 57.01107 0.0 1.0 910.0 1
204 1 40.962029 26.30474 0.0 1.0 910.0 1
205 1 99.499895 18.899722 0.0 1.0 910.0 1
206 1 74.439982 69.984164 0.0 1.0 910.0 1
207 1 7.425123 29.244146 0.0 1.0 910.0 1
208 1 53.631599 13.394143 0.0 1.0 910.0 1
209 1 87.684951 9.767437 0.0 1.0 910.0 1
210 1 96.540115 18.941162 0.0 1.0 910.0 1
211 1 84.10408 78.106171 0.0 1.0 910.0 1
212 1 36.814013 91.180589 0.0 1.0 910.0 1
213 1 12.910518 23.333847 0.0 1.0 910.0 1
214 1 83.969235 73.140624 0.0 1.0 910.0 1
215 1 15.809384 3.668218 0.0 1.0 910.0 1
216 1 92.70143 54.273302 0.0 1.0 910.0 1
217 1 25.578853 70.573977 0.0 1.0 910.0 1
218 1 12.784833 12.125365 0.0 1.0 910.0 1
219 1 76.14727 24.992777 0.0 1.0 910.0 1
220 1 49.535142 87.237591 0.0 1.0 910.0 1
221 1 53.68468 1.466475 0.0 1.0 910.0 1
222 1 55.160415 70.903868 0.0 1.0 910.0 1
223 1 82.236704 33.397864 0.0 1.0 910.0 1
224 1 31.286729 42.826109 0.0 1.0 910.0 1
225 1 42.102076 42.303872 0.0 1.0 910.0 1
226 1 79.555197 22.290804 0.0 1.0 910.0 1
227 1 53.810728 12.342722 0.0 1.0 910.0 1
228 1 37.21072 27.049241 0.0 1.0 910.0 1
229 1 83.914159 16.364241 0.0 1.0 910.0 1
230 1 44.9802 68.968191 0.0 1.0 910.0 1
231 1 71.453488 48.965001 0.0 1.0 910.0 1
232 1 1.143005 43.127179 0.0 1.0 910.0 1
233 1 89.337485 3.195998 0.0 1.0 910.0 1
234 1 97.579878 79.430613 0.0 1.0 910.0 1
235 1 2.112898 69.466563 0.0 1.0 910.0 1
236 1 35.955635 71.516656 0.0 1.0 910.0 1
237 1 12.832389 90.519708 0.0 1.0 910.0 1
238 1 84.441733 66.395523 0.0 1.0 910.0 1
239 1 18.154766 7.822092 0.0 1.0 910.0 1
240 1 96.626891 22.718982 0.0 1.0 910.0 1
241 1 34.306914 70.584276 0.0 1.0 910.0 1
242 1 45.16841 70.004226 0.0 1.0 910.0 1
243 1 32.890577 83.84545 0.0 1.0 910.0 1
244 1 85.710519 88.15576 0.0 1.0 910.0 1
245 1 28.778732 2.320515 0.0 1.0 910.0 1
246 1 17.015949 9.294515 0.0 1.0 910.0 1
247 1 16.537882 5.410436 0.0 1.0 910.0 1
248 1 36.066173 79.097282 0.0 1.0 910.0 1
249 1 7.713134 61.681396 0.0 1.0 910.0 1
250 1 11.150861 72.768386 0.0 1.0 910.0 1
251 1 86.126345 33.958853 0.0 1.0 910.0 1
252 1 17.539534 43.057168 0.0 1.0 910.0 1
253 1 56.219022 91.402715 0.0 1.0 910.0 1
254 1 60.920171 14.109557 0.0 1.0 910.0 1
255 1 88.499006 67.633646 0.0 1.0 910.0 1
256 1 15.305813 46.830886 0.0 1.0 910.0 1
257 1 15.863074 87.461858 0.0 1.0 910.0 1
258 1 39.45179 77.042752 0.0 1.0 910.0 1
259 1 55.860755 55.728961 0.0 1.0 910.0 1
260 1 27.631361 80.101907 0.0 1.0 910.0 1
261 1 73.248961 77.881402 0.0 1.0 910.0 1
262 1 24.092686 79.75703 0.0 1.0 910.0 1
263 1 50.362186 9.712925 0.0 1.0 910.0 1
264 1 82.593489 97.033667 0.0 1.0 910.0 1
265 1 12.580875 34.914982 0.0 1.0 910.0 1
266 1 96.769809 94.698004 0.0 1.0 910.0 1
267 1 79.984889 75.458767 0.0 1.0 910.0 1
268 1 18.599868 82.02366 0.0 1.0 910.0 1
269 1 13.652167 5.59765 0.0 1.0 910.0 1
270 1 74.224482 37.274191 0.0 1.0 910.0 1
271 1 37.447819 80.772157 0.0 1.0 910.0 1
272 1 3.315007 28.853378 0.0 1.0 910.0 1
273 1 5.739268 94.645496 0.0 1.0 910.0 1
274 1 48.824393 48.904347 0.0 1.0 910.0 1
275 1 89.910367 80.643796 0.0 1.0 910.0 1
276 1 50.865701 44.383561 0.0 1.0 910.0 1
277 1 84.353707 42.463572 0.0 1.0 910.0 1
278 1 71.082986 44.273418 0.0 1.0 910.0 1
279 1 51.531882 39.615771 0.0 1.0 910.0 1
280 1 72.984722 3.138324 0.0 1.0 910.0 1
281 1 58.257442 39.513516 0.0 1.0 910.0 1
282 1 95.770002 64.119729 0.0 1.0 910.0 1
283 1 91.822827 41.724451 0.0 1.0 910.0 1
284 1 78.857702 30.058078 0.0 1.0 910.0 1
285 1 2.450806 64.017343 0.0 1.0 910.0 1
286 1 16.076833 1.497297 0.0 1.0 910.0 1
287 1 47.422729 32.069754 0.0 1.0 910.0 1
288 1 14.655076 19.996604 0.0 1.0 910.0 1
289 1 7.404513 97.005805 0.0 1.0 910.0 1
290 1 68.974538 28.267987 0.0 1.0 910.0 1
291 1 93.637954 30.300525 0.0 1.0 910.0 1
292 1 91.164359 60.265147 0.0 1.0 910.0 1
293 1 10.315006 0.500052 0.0 1.0 910.0 1
294 1 28.219959 28.206816 0.0 1.0 910.0 1
295 1 1.451614 80.818253 0.0 1.0 910.0 1
296 1 33.716601 10.810767 0.0 1.0 910.0 1
297 1 81.359629 95.59902 0.0 1.0 910.0 1
298 1 17.275202 7.150292 0.0 1.0 910.0 1
299 1 73.89094 35.149861 0.0 1.0 910.0 1
300 1 54.032991 55.267519 0.0 1.0 910.0 1
301 1 22.646263 9.97554 0.0 1.0 910.0 1
302 1 59.220595 18.811843 0.0 1.0 910.0 1
303 1 64.155614 16.051148 0.0 1.0 910.0 1
304 1 37.593415 51.678887 0.0 1.0 910.0 1
305 1 91.299171 71.478657 0.0 1.0 910.0 1
306 1 64.187739 14.16986 0.0 1.0 910.0 1
307 1 9.176001 58.083199 0.0 1.0 910.0 1
308 1 57.204242 6.455936 0.0 1.0 910.0 1
309 1 78.968812 37.132561 0.0 1.0 910.0 1
310 1 76.521477 70.562812 0.0 1.0 910.0 1
311 1 43.684002 20.144704 0.0 1.0 910.0 1
312 1 0.500054 16.291013 0.0 1.0 910.0 1
313 1 34.305986 55.435404 0.0 1.0 910.0 1
314 1 47.465292 53.633492 0.0 1.0 910.0 1
315 1 85.155367 99.4999 0.0 1.0 910.0 1
316 1 95.853282 12.411284 0.0 1.0 910.0 1
317 1 19.325198 93.268224 0.0 1.0 910.0 1
318 1 84.078128 99.499873 0.0 1.0 910.0 1
319 1 0.500051 61.758753 0.0 1.0 910.0 1
320 1 35.029692 84.268253 0.0 1.0 910.0 1
321 1 66.405695 39.249531 0.0 1.0 910.0 1
322 1 59.935987 85.713096 0.0 1.0 910.0 1
323 1 48.211841 23.875462 0.0 1.0 910.0 1
324 1 66.249582 81.417904 0.0 1.0 910.0 1
325 1 32.177212 76.303078 0.0 1.0 910.0 1
326 1 25.957345 34.37478 0.0 1.0 910.0 1
327 1 47.365097 18.199983 0.0 1.0 910.0 1
328 1 97.204057 23.644675 0.0 1.0 910.0 1
329 1 65.379416 87.406123 0.0 1.0 910.0 1
330 1 32.100269 66.797789 0.0 1.0 910.0 1
331 1 72.251851 88.288841 0.0 1.0 910.0 1
332 1 71.734457 39.398357 0.0 1.0 910.0 1
333 1 70.474346 58.54303 0.0 1.0 910.0 1
334 1 91.125846 65.712345 0.0 1.0 910.0 1
335 1 11.703715 39.583693 0.0 1.0 910.0 1
336 1 43.049744 51.746304 0.0 1.0 910.0 1
337 1 2.973865 70.101427 0.0 1.0 910.0 1
338 1 46.62482 31.337792 0.0 1.0 910.0 1
339 1 67.617413 49.736962 0.0 1.0 910.0 1
340 1 20.30446 18.656238 0.0 1.0 910.0 1
341 1 12.431907 64.115945 0.0 1.0 910.0 1
342 1 37.078196 48.834232 0.0 1.0 910.0 1
343 1 55.775408 89.573161 0.0 1.0 910.0 1
344 1 46.441129 36.338506 0.0 1.0 910.0 1
345 1 76.280028 3.170601 0.0 1.0 910.0 1
346 1 57.978275 36.643531 0.0 1.0 910.0 1
347 1 84.118715 40.287807 0.0 1.0 910.0 1
348 1 41.360432 29.153873 0.0 1.0 910.0 1
349 1 64.645733 18.88335 0.0 1.0 910.0 1
350 1 61.80301 70.235671 0.0 1.0 910.0 1
351 1 45.663573 8.874501 0.0 1.0 910.0 1
352 1 70.862167 21.934053 0.0 1.0 910.0 1
353 1 26.503173 93.456564 0.0 1.0 910.0 1
354 1 90.768662 33.802058 0.0 1.0 910.0 1
355 1 91.131103 98.490829 0.0 1.0 910.0 1
356 1 7.96372 53.48165 0.0 1.0 910.0 1
357 1 36.976962 35.213118 0.0 1.0 910.0 1
358 1 98.50282 36.666641 0.0 1.0 910.0 1
359 1 93.892403 43.81357 0.0 1.0 910.0 1
360 1 37.763214 88.443 0.0 1.0 910.0 1
361 1 66.765588 86.135097 0.0 1.0 910.0 1
362 1 74.116418 24.20304 0.0 1.0 910.0 1
363 1 73.039028 1.336864 0.0 1.0 910.0 1
364 1 84.509157 51.423399 0.0 1.0 910.0 1
365 1 62.488267 5.1048 0.0 1.0 910.0 1
366 1 97.700568 66.276599 0.0 1.0 910.0 1
367 1 67.103561 34.603764 0.0 1.0 910.0 1
368 1 63.130753 4.250023 0.0 1.0 910.0 1
369 1 14.792431 77.669817 0.0 1.0 910.0 1
370 1 63.656022 48.760468 0.0 1.0 910.0 1
371 1 40.346089 33.181626 0.0 1.0 910.0 1
372 1 47.198124 63.037909 0.0 1.0 910.0 1
373 1 67.605879 31.768345 0.0 1.0 910.0 1
374 1 43.218582 38.539329 0.0 1.0 910.0 1
375 1 71.815608 72.150926 0.0 1.0 910.0 1
376 1 13.634634 13.992663 0.0 1.0 910.0 1
377 1 45.516194 77.098977 0.0 1.0 910.0 1
378 1 93.721915 74.752833 0.0 1.0 910.0 1
379 1 98.082846 76.616758 0.0 1.0 910.0 1
380 1 16.818236 3.237337 0.0 1.0 910.0 1
381 1 39.883661 44.148918 0.0 1.0 910.0 1
382 1 88.771801 9.762049 0.0 1.0 910.0 1
383 1 24.297315 4.125224 0.0 1.0 910.0 1
384 1 16.740456 36.274797 0.0 1.0 910.0 1
385 1 56.776404 74.441632 0.0 1.0 910.0 1
386 1 89.112077 53.238863 0.0 1.0 910.0 1
387 1 13.549918 77.577256 0.0 1.0 910.0 1
388 1 77.77966 56.048485 0.0 1.0 910.0 1
389 1 1.373473 67.739488 0.0 1.0 910.0 1
390 1 79.884292 62.921667 0.0 1.0 910.0 1
391 1 54.270807 72.038686 0.0 1.0 910.0 1
392 1 11.072901 89.207454 0.0 1.0 910.0 1
393 1 78.055666 99.499892 0.0 1.0 910.0 1
394 1 95.491968 83.229708 0.0 1.0 910.0 1
395 1 84.07108 69.226404 0.0 1.0 910.0 1
396 1 24.484097 55.413802 0.0 1.0 910.0 1
397 1 35.398385 70.575364 0.0 1.0 910.0 1
398 1 17.633921 12.119645 0.0 1.0 910.0 1
399 1 28.175586 17.046756 0.0 1.0 910.0 1
400 1 97.702694 65.191744 0.0 1.0 910.0 1
401 1 10.437536 86.395228 0.0 1.0 910.0 1
402 1 88.935987 76.41097 0.0 1.0 910.0 1
403 1 65.741762 32.064186 0.0 1.0 910.0 1
404 1 75.392778 59.384428 0.0 1.0 910.0 1
405 1 44.87264 25.950364 0.0 1.0 910.0 1
406 1 33.93658 43.984239 0.0 1.0 910.0 1
407 1 18.453685 19.83178 0.0 1.0 910.0 1
408 1 18.414287 5.646754 0.0 1.0 910.0 1
409 1 34.266292 11.757384 0.0 1.0 910.0 1
410 1 94.083698 39.654374 0.0 1.0 910.0 1
411 1 11.344056 8.60306 0.0 1.0 910.0 1
412 1 96.773423 95.786494 0.0 1.0 910.0 1
413 1 83.170638 60.01998 0.0 1.0 910.0 1
414 1 90.946461 11.62456 0.0 1.0 910.0 1
415 1 73.374992 37.95213 0.0 1.0 910.0 1
416 1 72.435087 5.910658 0.0 1.0 910.0 1
417 1 70.268454 7.695952 0.0 1.0 910.0 1
418 1 32.187237 45.741344 0.0 1.0 910.0 1
419 1 93.920995 66.289619 0.0 1.0 910.0 1
420 1 77.145338 31.396894 0.0 1.0 910.0 1
421 1 1.42067 63.418085 0.0 1.0 910.0 1
422 1 1.486556 71.536643 0.0 1.0 910.0 1
423 1 51.476864 26.784943 0.0 1.0 910.0 1
424 1 16.605609 62.54479 0.0 1.0 910.0 1
425 1 18.486894 56.315931 0.0 1.0 910.0 1
426 1 86.918572 84.606487 0.0 1.0 910.0 1
427 1 22.039478 7.164922 0.0 1.0 910.0 1
428 1 24.483792 29.446923 0.0 1.0 910.0 1
429 1 11.762623 16.222524 0.0 1.0 910.0 1
430 1 13.428379 62.312936 0.0 1.0 910.0 1
431 1 2.50164 72.226503 0.0 1.0 910.0 1
432 1 23.898613 60.156123 0.0 1.0 910.0 1
433 1 93.870731 21.853073 0.0 1.0 910.0 1
434 1 78.207727 69.207303 0.0 1.0 910.0 1
435 1 36.253255 42.317086 0.0 1.0 910.0 1
436 1 84.402935 61.418924 0.0 1.0 910.0 1
437 1 96.779001 96.877985 0.0 1.0 910.0 1
438 1 93.919299 67.384604 0.0 1.0 910.0 1
439 1 48.257479 47.075571 0.0 1.0 910.0 1
440 1 97.1694 82.282066 0.0 1.0 910.0 1
441 1 49.83044 52.540578 0.0 1.0 910.0 1
442 1 69.84525 92.674659 0.0 1.0 910.0 1
443 1 46.354959 48.022569 0.0 1.0 910.0 1
444 1 75.720293 5.972326 0.0 1.0 910.0 1
445 1 50.613201 45.433895 0.0 1.0 910.0 1
446 1 41.978258 49.845745 0.0 1.0 910.0 1
447 1 3.088384 92.712704 0.0 1.0 910.0 1
448 1 77.241434 94.144563 0.0 1.0 910.0 1
449 1 65.274094 61.637853 0.0 1.0 910.0 1
450 1 36.999394 12.685965 0.0 1.0 910.0 1
451 1 10.069013 89.636565 0.0 1.0 910.0 1
452 1 90.070785 22.897679 0.0 1.0 910.0 1
453 1 47.204727 47.35437 0.0 1.0 910.0 1
454 1 15.210402 56.300834 0.0 1.0 910.0 1
455 1 22.892472 50.663218 0.0 1.0 910.0 1
456 1 58.126481 85.153829 0.0 1.0 910.0 1
457 1 91.250978 78.136304 0.0 1.0 910.0 1
458 1 42.537801 76.956314 0.0 1.0 910.0 1
459 1 12.278267 95.853179 0.0 1.0 910.0 1
460 1 76.242677 10.672215 0.0 1.0 910.0 1
461 1 41.344446 76.270778 0.0 1.0 910.0 1
462 1 17.233052 70.348373 0.0 1.0 910.0 1
463 1 17.182755 59.33316 0.0 1.0 910.0 1
464 1 52.198693 46.940583 0.0 1.0 910.0 1
465 1 90.970272 7.886708 0.0 1.0 910.0 1
466 1 68.108887 7.465471 0.0 1.0 910.0 1
467 1 56.397806 45.715324 0.0 1.0 910.0 1
468 1 25.116982 21.206802 0.0 1.0 910.0 1
469 1 14.163337 1.491191 0.0 1.0 910.0 1
470 1 94.136404 29.342243 0.0 1.0 910.0 1
471 1 8.927677 12.455856 0.0 1.0 910.0 1
472 1 82.193569 53.220309 0.0 1.0 910.0 1
473 1 60.917546 82.611521 0.0 1.0 910.0 1
474 1 73.520772 9.680375 0.0 1.0 910.0 1
475 1 44.161429 49.87845 0.0 1.0 910.0 1
476 1 97.706428 69.532084 0.0 1.0 910.0 1
477 1 41.436592 16.400211 0.0 1.0 910.0 1
478 1 81.502351 77.484629 0.0 1.0 910.0 1
479 1 0.823661 35.119781 0.0 1.0 910.0 1
480 1 57.548423 96.877384 0.0 1.0 910.0 1
481 1 93.757287 89.924208 0.0 1.0 910.0 1
482 1 97.072776 33.898321 0.0 1.0 910.0 1
483 1 16.953839 37.349472 0.0 1.0 910.0 1
484 1 32.145928 72.497551 0.0 1.0 910.0 1
485 1 13.236629 0.500051 0.0 1.0 910.0 1
486 1 59.094375 71.24107 0.0 1.0 910.0 1
487 1 76.793556 9.73921 0.0 1.0 910.0 1
488 1 67.727721 83.017314 0.0 1.0 910.0 1
489 1 91.284954 92.071348 0.0 1.0 910.0 1
490 1 73.715838 99.499895 0.0 1.0 910.0 1
491 1 24.052233 73.159043 0.0 1.0 910.0 1
492 1 41.327745 8.880227 0.0 1.0 910.0 1
493 1 78.451108 60.444741 0.0 1.0 910.0 1
494 1 47.833747 78.818126 0.0 1.0 910.0 1
495 1 86.894225 64.257393 0.0 1.0 910.0 1
496 1 94.822127 76.631935 0.0 1.0 910.0 1
497 1 31.560948 67.746923 0.0 1.0 910.0 1
498 1 77.846791 75.935599 0.0 1.0 910.0 1
499 1 60.586322 41.762533 0.0 1.0 910.0 1
500 1 48.371612 10.628377 0.0 1.0 910.0 1
501 1 51.905119 33.592556 0.0 1.0 910.0 1
502 1 32.054599 0.500055 0.0 1.0 910.0 1
503 1 60.556467 93.30909 0.0 1.0 910.0 1
504 1 53.630004 68.769719 0.0 1.0 910.0 1
505 1 2.567621 96.606546 0.0 1.0 910.0 1
506 1 31.0296 55.429223 0.0 1.0 910.0 1
507 1 92.766119 80.52164 0.0 1.0 910.0 1
508 1 87.123989 95.621734 0.0 1.0 910.0 1
509 1 95.867361 58.671277 0.0 1.0 910.0 1
510 1 81.160552 7.89464 0.0 1.0 910.0 1
511 1 3.688252 71.829513 0.0 1.0 910.0 1
512 1 89.579226 83.505369 0.0 1.0 910.0 1
513 1 89.837046 94.544049 0.0 1.0 910.0 1
514 1 37.555051 13.624138 0.0 1.0 910.0 1
515 1 6.234963 40.876452 0.0 1.0 910.0 1
516 1 57.329801 77.644883 0.0 1.0 910.0 1
517 1 91.225729 77.01602 0.0 1.0 910.0 1
518 1 90.033314 95.595808 0.0 1.0 910.0 1
519 1 57.08667 16.897543 0.0 1.0 910.0 1
520 1 76.783779 35.259495 0.0 1.0 910.0 1
521 1 69.883255 4.01776 0.0 1.0 910.0 1
522 1 88.351156 66.559126 0.0 1.0 910.0 1
523 1 19.696003 89.754444 0.0 1.0 910.0 1
524 1 21.82523 71.653775 0.0 1.0 910.0 1
525 1 51.31932 22.833479 0.0 1.0 910.0 1
526 1 19.387015 13.443071 0.0 1.0 910.0 1
527 1 73.15424 57.598634 0.0 1.0 910.0 1
528 1 32.126249 70.59589 0.0 1.0 910.0 1
529 1 50.784989 83.070138 0.0 1.0 910.0 1
530 1 53.027232 37.189908 0.0 1.0 910.0 1
531 1 43.415098 23.403364 0.0 1.0 910.0 1
532 1 21.945968 87.076 0.0 1.0 910.0 1
533 1 9.303341 65.363133 0.0 1.0 910.0 1
534 1 93.714598 72.863268 0.0 1.0 910.0 1
535 1 12.734897 18.952178 0.0 1.0 910.0 1
536 1 59.901293 10.523832 0.0 1.0 910.0 1
537 1 4.316802 30.620384 0.0 1.0 910.0 1
538 1 46.352623 66.167827 0.0 1.0 910.0 1
539 1 75.156537 81.317613 0.0 1.0 910.0 1
540 1 65.575445 42.002266 0.0 1.0 910.0 1
541 1 13.048976 37.04107 0.0 1.0 910.0 1
542 1 12.814488 35.976985 0.0 1.0 910.0 1
543 1 37.523141 9.846477 0.0 1.0 910.0 1
544 1 60.970785 3.536032 0.0 1.0 910.0 1
545 1 55.992148 85.650038 0.0 1.0 910.0 1
546 1 82.894215 57.891454 0.0 1.0 910.0 1
547 1 37.3141 32.0262 0.0 1.0 910.0 1
548 1 31.590565 71.547861 0.0 1.0 910.0 1
549 1 33.177147 11.756916 0.0 1.0 910.0 1
550 1 89.180925 74.763416 0.0 1.0 910.0 1
551 1 73.556287 33.022249 0.0 1.0 910.0 1
552 1 69.281074 48.870964 0.0 1.0 910.0 1
553 1 65.837425 13.261354 0.0 1.0 910.0 1
554 1 61.366745 97.683806 0.0 1.0 910.0 1
555 1 32.640155 65.848413 0.0 1.0 910.0 1
556 1 79.962499 88.118438 0.0 1.0 910.0 1
557 1 49.60652 41.786805 0.0 1.0 910.0 1
558 1 35.464907 45.971529 0.0 1.0 910.0 1
559 1 95.534314 22.745668 0.0 1.0 910.0 1
560 1 15.517437 14.01729 0.0 1.0 910.0 1
561 1 9.812165 50.585519 0.0 1.0 910.0 1
562 1 83.885083 6.958161 0.0 1.0 910.0 1
563 1 64.764319 99.499896 0.0 1.0 910.0 1
564 1 0.50005 88.628312 0.0 1.0 910.0 1
565 1 68.649612 26.128412 0.0 1.0 910.0 1
566 1 16.570938 84.612739 0.0 1.0 910.0 1
567 1 92.304951 24.724418 0.0 1.0 910.0 1
568 1 30.80772 22.07574 0.0 1.0 910.0 1
569 1 24.54807 47.830924 0.0 1.0 910.0 1
570 1 18.338431 40.028671 0.0 1.0 910.0 1
571 1 3.27099 10.272636 0.0 1.0 910.0 1
572 1 61.021045 76.932829 0.0 1.0 910.0 1
573 1 47.085104 88.814718 0.0 1.0 910.0 1
574 1 82.616453 43.793465 0.0 1.0 910.0 1
575 1 61.584327 48.201467 0.0 1.0 910.0 1
576 1 53.324672 27.190007 0.0 1.0 910.0 1
577 1 86.857389 73.050058 0.0 1.0 910.0 1
578 1 85.359731 44.983404 0.0 1.0 910.0 1
579 1 17.36594 78.994102 0.0 1.0 910.0 1
580 1 19.275835 81.162919 0.0 1.0 910.0 1
581 1 58.726451 15.968344 0.0 1.0 910.0 1
582 1 95.724292 40.543473 0.0 1.0 910.0 1
583 1 39.277587 24.932591 0.0 1.0 910.0 1
584 1 82.817736 27.613513 0.0 1.0 910.0 1
585 1 4.347218 66.356858 0.0 1.0 910.0 1
586 1 6.097586 67.681938 0.0 1.0 910.0 1
587 1 23.983513 38.709905 0.0 1.0 910.0 1
588 1 12.704459 16.758066 0.0 1.0 910.0 1
589 1 98.624342 82.70073 0.0 1.0 910.0 1
590 1 9.365439 62.818251 0.0 1.0 910.0 1
591 1 48.869217 38.531018 0.0 1.0 910.0 1
592 1 15.556417 18.339304 0.0 1.0 910.0 1
593 1 71.434854 0.500055 0.0 1.0 910.0 1
594 1 39.848591 46.038204 0.0 1.0 910.0 1
595 1 39.108689 92.577886 0.0 1.0 910.0 1
596 1 7.180316 89.860113 0.0 1.0 910.0 1
597 1 80.962788 26.866196 0.0 1.0 910.0 1
598 1 44.788072 20.0937 0.0 1.0 910.0 1
599 1 20.946978 43.892868 0.0 1.0 910.0 1
600 1 84.079635 57.486865 0.0 1.0 910.0 1
601 1 6.157248 28.260193 0.0 1.0 910.0 1
602 1 12.455139 85.534061 0.0 1.0 910.0 1
603 1 32.038653 4.209511 0.0 1.0 910.0 1
604 1 31.000714 63.004868 0.0 1.0 910.0 1
605 1 56.645698 56.487667 0.0 1.0 910.0 1
606 1 35.450544 85.268056 0.0 1.0 910.0 1
607 1 76.442092 89.867546 0.0 1.0 910.0 1
608 1 62.061072 10.14053 0.0 1.0 910.0 1
609 1 69.139082 11.454789 0.0 1.0 910.0 1
610 1 62.392461 9.059076 0.0 1.0 910.0 1
611 1 3.442459 63.545282 0.0 1.0 910.0 1
612 1 61.639404 37.537911 0.0 1.0 910.0 1
613 1 41.985278 25.927689 0.0 1.0 910.0 1
614 1 89.980224 19.131953 0.0 1.0 910.0 1
615 1 91.092478 63.536758 0.0 1.0 910.0 1
616 1 42.451703 62.084168 0.0 1.0 910.0 1
617 1 58.757904 12.176648 0.0 1.0 910.0 1
618 1 8.739038 48.68247 0.0 1.0 910.0 1
619 1 60.863657 40.709907 0.0 1.0 910.0 1
620 1 38.677996 70.537396 0.0 1.0 910.0 1
621 1 52.823537 65.554241 0.0 1.0 910.0 1
622 1 45.059047 13.035704 0.0 1.0 910.0 1
623 1 32.516807 34.445195 0.0 1.0 910.0 1
624 1 18.765415 10.601643 0.0 1.0 910.0 1
625 1 32.698517 50.700955 0.0 1.0 910.0 1
626 1 95.402894 33.036709 0.0 1.0 910.0 1
627 1 93.399522 24.688466 0.0 1.0 910.0 1
628 1 28.275484 62.053044 0.0 1.0 910.0 1
629 1 98.164292 33.841828 0.0 1.0 910.0 1
630 1 64.982195 58.042442 0.0 1.0 910.0 1
631 1 40.828426 59.235169 0.0 1.0 910.0 1
632 1 78.419378 12.580891 0.0 1.0 910.0 1
633 1 56.741323 4.62058 0.0 1.0 910.0 1
634 1 61.75061 86.276618 0.0 1.0 910.0 1
635 1 19.586604 24.691875 0.0 1.0 910.0 1
636 1 92.406164 38.794768 0.0 1.0 910.0 1
637 1 75.454849 42.660415 0.0 1.0 910.0 1
638 1 90.235617 28.583356 0.0 1.0 910.0 1
639 1 67.459344 14.234739 0.0 1.0 910.0 1
640 1 42.069869 44.193662 0.0 1.0 910.0 1
641 1 7.169815 81.614598 0.0 1.0 910.0 1
642 1 16.951293 77.985745 0.0 1.0 910.0 1
643 1 69.782579 49.832673 0.0 1.0 910.0 1
644 1 43.407084 78.526567 0.0 1.0 910.0 1
645 1 9.66071 59.061812 0.0 1.0 910.0 1
646 1 38.096074 42.897008 0.0 1.0 910.0 1
647 1 41.703411 94.13883 0.0 1.0 910.0 1
648 1 54.424969 14.104953 0.0 1.0 910.0 1
649 1 27.091433 82.056463 0.0 1.0 910.0 1
650 1 93.170126 0.500118 0.0 1.0 910.0 1
651 1 85.810295 31.788501 0.0 1.0 910.0 1
652 1 54.360391 6.21881 0.0 1.0 910.0 1
653 1 98.665662 94.698576 0.0 1.0 910.0 1
654 1 95.732117 41.611227 0.0 1.0 910.0 1
655 1 77.670425 91.302452 0.0 1.0 910.0 1
656 1 84.590698 47.724982 0.0 1.0 910.0 1
657 1 12.057567 99.499899 0.0 1.0 910.0 1
658 1 35.440871 19.237872 0.0 1.0 910.0 1
659 1 1.347943 32.30725 0.0 1.0 910.0 1
660 1 31.19608 14.231866 0.0 1.0 910.0 1
661 1 91.267932 26.646201 0.0 1.0 910.0 1
662 1 47.886949 5.117976 0.0 1.0 910.0 1
663 1 0.50005 81.355831 0.0 1.0 910.0 1
664 1 90.494856 39.118186 0.0 1.0 910.0 1
665 1 16.67393 97.599801 0.0 1.0 910.0 1
666 1 50.883496 52.238866 0.0 1.0 910.0 1
667 1 89.335653 5.075707 0.0 1.0 910.0 1
668 1 85.54333 15.417542 0.0 1.0 910.0 1
669 1 83.895507 3.197856 0.0 1.0 910.0 1
670 1 3.901164 85.091651 0.0 1.0 910.0 1
671 1 13.087648 50.596083 0.0 1.0 910.0 1
672 1 4.174191 82.886018 0.0 1.0 910.0 1
673 1 47.981827 33.869626 0.0 1.0 910.0 1
674 1 73.84262 39.928402 0.0 1.0 910.0 1
675 1 92.050524 62.999594 0.0 1.0 910.0 1
676 1 33.680836 93.586904 0.0 1.0 910.0 1
677 1 35.42775 51.645173 0.0 1.0 910.0 1
678 1 63.165574 43.011049 0.0 1.0 910.0 1
679 1 24.347965 35.832962 0.0 1.0 910.0 1
680 1 10.855614 20.06194 0.0 1.0 910.0 1
681 1 99.499896 16.768541 0.0 1.0 910.0 1
682 1 87.594671 51.670205 0.0 1.0 910.0 1
683 1 83.9985 20.094626 0.0 1.0 910.0 1
684 1 47.837803 68.901327 0.0 1.0 910.0 1
685 1 42.1567 29.855857 0.0 1.0 910.0 1
686 1 74.221369 57.996246 0.0 1.0 910.0 1
687 1 74.910651 35.537202 0.0 1.0 910.0 1
688 1 92.015215 65.188598 0.0 1.0 910.0 1
689 1 54.13709 40.824532 0.0 1.0 910.0 1
690 1 36.993677 65.832508 0.0 1.0 910.0 1
691 1 91.199811 59.192285 0.0 1.0 910.0 1
692 1 18.681245 3.480355 0.0 1.0 910.0 1
693 1 1.4017 81.971812 0.0 1.0 910.0 1
694 1 78.939506 87.758874 0.0 1.0 910.0 1
695 1 26.553826 85.811265 0.0 1.0 910.0 1
696 1 46.79247 1.350553 0.0 1.0 910.0 1
697 1 31.800279 91.38613 0.0 1.0 910.0 1
698 1 88.512783 25.767142 0.0 1.0 910.0 1
699 1 27.586683 93.617931 0.0 1.0 910.0 1
700 1 3.276589 9.175964 0.0 1.0 910.0 1
701 1 42.436117 65.76335 0.0 1.0 910.0 1
702 1 84.988599 1.339233 0.0 1.0 910.0 1
703 1 50.947731 74.900931 0.0 1.0 910.0 1
704 1 4.903616 84.652539 0.0 1.0 910.0 1
705 1 53.972281 11.264038 0.0 1.0 910.0 1
706 1 6.453049 44.803563 0.0 1.0 910.0 1
707 1 43.058131 92.815777 0.0 1.0 910.0 1
708 1 62.019696 94.890264 0.0 1.0 910.0 1
709 1 27.923039 20.5615 0.0 1.0 910.0 1
710 1 98.528913 34.807075 0.0 1.0 910.0 1
711 1 57.175556 46.478966 0.0 1.0 910.0 1
712 1 63.131372 12.264172 0.0 1.0 910.0 1
713 1 72.421742 74.191305 0.0 1.0 910.0 1
714 1 92.047477 4.136109 0.0 1.0 910.0 1
715 1 33.968377 91.717174 0.0 1.0 910.0 1
716 1 6.539537 87.043555 0.0 1.0 910.0 1
717 1 25.624025 49.732217 0.0 1.0 910.0 1
718 1 21.729168 58.257525 0.0 1.0 910.0 1
719 1 25.076224 20.112251 0.0 1.0 910.0 1
720 1 48.021967 59.893172 0.0 1.0 910.0 1