Data file for read_data

4000 atoms
2 atom types

-1 1 xlo xhi
-1 1 ylo yhi
-1 1 zlo zhi

Atoms

1 1 0.010000 1002.000000 0.034427 -0.440907 0.913582
2 1 0.010000 1002.000000 0.997998 -0.504455 -0.518755
3 1 0.010000 1002.000000 -0.677565 -0.847940 -0.580570
4 1 0.010000 1002.000000 -0.657471 0.264482 0.005736
5 1 0.010000 1002.000000 -0.682615 0.311173 0.068994
6 1 0.010000 1002.000000 -0.445414 -0.435731 -0.908323
7 1 0.010000 1002.000000 0.461466 -0.208551 -0.917375
8 1 0.010000 1002.000000 0.329776 0.213138 0.526676
9 1 0.010000 1002.000000 -0.679507 -0.823161 -0.063654
10 1 0.010000 1002.000000 -0.942802 -0.255766 0.359787
11 1 0.010000 1002.000000 0.854918 -0.287821 0.193150
12 1 0.010000 1002.000000 0.488947 -0.196216 0.057636
13 1 0.010000 1002.000000 0.205912 -0.063397 0.912895
14 1 0.010000 1002.000000 -0.280744 -0.719074 -0.191738
15 1 0.010000 1002.000000 0.246453 -0.278279 0.613295
16 1 0.010000 1002.000000 -0.192282 -0.757784 0.996056
17 1 0.010000 1002.000000 0.297149 -0.146987 0.251563
18 1 0.010000 1002.000000 0.121960 -0.666536 -0.499367
19 1 0.010000 1002.000000 -0.609263 -0.358023 0.745836
20 1 0.010000 1002.000000 -0.834968 -0.489471 -0.887010
21 1 0.010000 1002.000000 0.455401 -0.483121 -0.601801
22 1 0.010000 1002.000000 0.042892 0.050993 0.857137
23 1 0.010000 1002.000000 0.033444 0.469780 -0.096536
24 1 0.010000 1002.000000 -0.948803 -0.792746 0.565215
25 1 0.010000 1002.000000 -0.070636 0.491114 -0.475259
26 1 0.010000 1002.000000 -0.003501 0.185249 0.977523
27 1 0.010000 1002.000000 -0.504464 -0.487766 0.200937
28 1 0.010000 1002.000000 0.677251 -0.857321 -0.160040
29 1 0.010000 1002.000000 0.864183 0.235575 0.869933
30 1 0.010000 1002.000000 0.973382 -0.854172 -0.267637
31 1 0.010000 1002.000000 0.316415 -0.741773 0.171591
32 1 0.010000 1002.000000 -0.510140 0.602255 -0.642448
33 1 0.010000 1002.000000 -0.019538 -0.032171 0.197840
34 1 0.010000 1002.000000 0.270189 -0.889941 0.116319
35 1 0.010000 1002.000000 -0.885827 0.333567 0.164053
36 1 0.010000 1002.000000 -0.827334 -0.892273 -0.301808
37 1 0.010000 1002.000000 -0.615366 0.596213 -0.613176
38 1 0.010000 1002.000000 -0.520168 0.243045 0.095194
39 1 0.010000 1002.000000 0.541284 -0.157020 0.596724
40 1 0.010000 1002.000000 -0.998011 -0.713681 -0.262419
41 1 0.010000 1002.000000 -0.900470 0.238911 -0.041438
42 1 0.010000 1002.000000 0.631986 0.663804 0.779529
43 1 0.010000 1002.000000 -0.729524 -0.780488 0.656379
44 1 0.010000 1002.000000 -0.359920 0.501259 0.740606
45 1 0.010000 1002.000000 -0.590007 -0.570980 0.894861
46 1 0.010000 1002.000000 -0.644701 0.382084 -0.439044
47 1 0.010000 1002.000000 -0.633644 0.292815 -0.903587
48 1 0.010000 1002.000000 0.915414 -0.599975 -0.682039
49 1 0.010000 1002.000000 0.120457 0.080294 -0.753347
50 1 0.010000 1002.000000 0.547363 -0.073343 0.379872
51 1 0.010000 1002.000000 0.691472 0.226754 -0.968584
52 1 0.010000 1002.000000 -0.044622 -0.620977 0.604166
53 1 0.010000 1002.000000 -0.951205 0.557267 -0.503021
54 1 0.010000 1002.000000 -0.350310 -0.374471 0.819975
55 1 0.010000 1002.000000 -0.580400 -0.848082 -0.464927
56 1 0.010000 1002.000000 0.733292 0.222003 0.904926
57 1 0.010000 1002.000000 -0.260932 -0.483079 -0.296050
58 1 0.010000 1002.000000 -0.352894 0.423792 0.586575
59 1 0.010000 1002.000000 0.096743 0.877229 -0.811516
60 1 0.010000 1002.000000 -0.579368 0.449388 0.335284
61 1 0.010000 1002.000000 -0.793225 0.084219 -0.460842
62 1 0.010000 1002.000000 -0.455120 0.797913 0.611874
63 1 0.010000 1002.000000 -0.222841 0.482656 0.771495
64 1 0.010000 1002.000000 0.410443 -0.026617 -0.954439
65 1 0.010000 1002.000000 -0.140900 0.156274 0.333780
66 1 0.010000 1002.000000 0.187762 0.793622 0.436080
67 1 0.010000 1002.000000 -0.376125 -0.910579 -0.137542
68 1 0.010000 1002.000000 0.455422 -0.744717 -0.634073
69 1 0.010000 1002.000000 -0.311368 -0.782387 0.528957
70 1 0.010000 1002.000000 0.947297 -0.049970 -0.680554
71 1 0.010000 1002.000000 -0.174171 0.692960 -0.208291
72 1 0.010000 1002.000000 -0.040817 0.461415 0.760535
73 1 0.010000 1002.000000 0.284141 0.247655 0.792608
74 1 0.010000 1002.000000 0.543272 0.999359 -0.016795
75 1 0.010000 1002.000000 -0.480694 0.732329 -0.300605
76 1 0.010000 1002.000000 -0.635277 -0.876342 -0.318484
77 1 0.010000 1002.000000 0.956085 -0.645773 0.560879
78 1 0.010000 1002.000000 0.599186 0.505992 0.824107
79 1 0.010000 1002.000000 -0.347847 -0.987975 0.812581
80 1 0.010000 1002.000000 -0.333959 0.496919 -0.244337
81 1 0.010000 1002.000000 -0.587291 0.418994 0.506949
82 1 0.010000 1002.000000 0.361933 -0.379075 -0.109231
83 1 0.010000 1002.000000 -0.606814 0.944822 0.388929
84 1 0.010000 1002.000000 -0.445413 0.193181 0.492981
85 1 0.010000 1002.000000 0.271888 -0.102755 -0.697793
86 1 0.010000 1002.000000 -0.796035 0.611717 0.333792
87 1 0.010000 1002.000000 -0.838632 -0.140805 -0.715320
88 1 0.010000 1002.000000 0.485415 -0.562893 0.346215
89 1 0.010000 1002.000000 -0.330119 -0.289636 0.329636
90 1 0.010000 1002.000000 0.232500 0.191245 -0.956365
91 1 0.010000 1002.000000 -0.049635 0.262443 -0.391565
92 1 0.010000 1002.000000 0.498824 -0.543547 -0.752670
93 1 0.010000 1002.000000 0.253416 -0.963178 0.176012
94 1 0.010000 1002.000000 -0.398885 0.342053 0.227042
95 1 0.010000 1002.000000 0.859975 0.137458 0.581638
96 1 0.010000 1002.000000 -0.020288 -0.836099 0.423295
97 1 0.010000 1002.000000 -0.778666 0.911713 0.883051
98 1 0.010000 1002.000000 0.632833 0.642578 -0.035971
99 1 0.010000 1002.000000 0.810525 -0.886611 0.088950
100 1 0.010000 1002.000000 0.264699 0.917858 -0.060860
101 1 0.010000 1002.000000 -0.319819 0.381140 0.375333
102 1 0.010000 1002.000000 0.095859 -0.529475 -0.665306
103 1 0.010000 1002.000000 -0.836011 0.024133 -0.419559
104 1 0.010000 1002.000000 -0.302610 0.901767 0.132012
105 1 0.010000 1002.000000 0.849616 0.941135 -0.198784
106 1 0.010000 1002.000000 0.691961 0.544120 -0.777531
107 1 0.010000 1002.000000 -0.609288 -0.900307 0.698105
108 1 0.010000 1002.000000 0.620745 0.041912 -0.044886
109 1 0.010000 1002.000000 -0.451238 0.153557 -0.233085
110 1 0.010000 1002.000000 0.282611 0.476306 -0.564619
111 1 0.010000 1002.000000 0.110353 0.658111 0.150685
112 1 0.010000 1002.000000 0.132173 0.303843 -0.058999
113 1 0.010000 1002.000000 0.715353 -0.205651 0.011384
114 1 0.010000 1002.000000 -0.798297 -0.246728 0.015011
115 1 0.010000 1002.000000 0.751625 -0.886880 -0.353054
116 1 0.010000 1002.000000 0.459013 -0.198245 -0.775637
117 1 0.010000 1002.000000 -0.114077 -0.586064 -0.371192
118 1 0.010000 1002.000000 -0.585965 0.609045 -0.868250
119 1 0.010000 1002.000000 -0.689233 -0.644136 -0.722799
120 1 0.010000 1002.000000 0.458445 -0.237253 -0.491980
121 1 0.010000 1002.000000 -0.403132 -0.472098 -0.707999
122 1 0.010000 1002.000000 0.129942 -0.960666 0.769063
123 1 0.010000 1002.000000 0.110823 0.166707 -0.771712
124 1 0.010000 1002.000000 0.425362 -0.535188 0.864425
125 1 0.010000 1002.000000 0.973748 0.322396 0.681448
126 1 0.010000 1002.000000 -0.030773 -0.925207 -0.075612
127 1 0.010000 1002.000000 0.492652 -0.675804 -0.615937
128 1 0.010000 1002.000000 0.066165 0.063898 -0.495542
129 1 0.010000 1002.000000 0.982235 0.220371 0.640939
130 1 0.010000 1002.000000 -0.754547 0.086897 -0.159373
131 1 0.010000 1002.000000 0.903213 -0.859899 -0.411844
132 1 0.010000 1002.000000 -0.735285 -0.805768 0.765292
133 1 0.010000 1002.000000 -0.758100 0.586596 0.738002
134 1 0.010000 1002.000000 0.827395 -0.410718 0.635592
135 1 0.010000 1002.000000 0.896782 -0.611024 -0.914262
136 1 0.010000 1002.000000 0.328802 -0.629658 0.367315
137 1 0.010000 1002.000000 0.121438 -0.632066 0.669912
138 1 0.010000 1002.000000 -0.685530 0.568142 -0.476239
139 1 0.010000 1002.000000 0.393283 0.045958 -0.857962
140 1 0.010000 1002.000000 -0.175514 0.537398 0.201383
141 1 0.010000 1002.000000 0.168323 -0.152796 -0.932233
142 1 0.010000 1002.000000 0.977057 0.607810 0.074017
143 1 0.010000 1002.000000 -0.964825 0.873380 -0.553834
144 1 0.010000 1002.000000 0.243609 -0.024038 0.350184
145 1 0.010000 1002.000000 -0.718798 -0.271047 -0.962032
146 1 0.010000 1002.000000 0.607276 -0.160200 0.692336
147 1 0.010000 1002.000000 -0.836999 -0.221017 -0.567623
148 1 0.010000 1002.000000 -0.340274 0.326082 0.525514
149 1 0.010000 1002.000000 -0.486163 0.936272 -0.525552
150 1 0.010000 1002.000000 -0.852057 0.501590 -0.855963
151 1 0.010000 1002.000000 -0.455259 0.186392 -0.139538
152 1 0.010000 1002.000000 0.019898 0.956356 0.182756
153 1 0.010000 1002.000000 -0.203492 0.108974 0.941819
154 1 0.010000 1002.000000 -0.990878 0.511112 0.365212
155 1 0.010000 1002.000000 -0.742319 -0.460918 -0.200247
156 1 0.010000 1002.000000 0.836855 0.700727 -0.891036
157 1 0.010000 1002.000000 -0.450443 0.219700 0.276221
158 1 0.010000 1002.000000 0.503885 -0.003762 -0.813159
159 1 0.010000 1002.000000 0.957000 -0.121130 -0.364245
160 1 0.010000 1002.000000 0.146697 -0.622696 0.213173
161 1 0.010000 1002.000000 -0.041125 0.745215 -0.197900
162 1 0.010000 1002.000000 -0.762368 -0.814016 0.869392
163 1 0.010000 1002.000000 0.100942 0.522142 0.925740
164 1 0.010000 1002.000000 0.399716 -0.990547 -0.029766
165 1 0.010000 1002.000000 0.414843 -0.845597 0.924654
166 1 0.010000 1002.000000 -0.516083 -0.742468 -0.854810
167 1 0.010000 1002.000000 -0.017463 0.876097 -0.611661
168 1 0.010000 1002.000000 0.106661 0.538775 -0.996720
169 1 0.010000 1002.000000 -0.118612 0.093422 0.748226
170 1 0.010000 1002.000000 0.336593 0.597201 0.720706
171 1 0.010000 1002.000000 0.868207 0.129027 -0.959037
172 1 0.010000 1002.000000 0.304481 0.804155 -0.985224
173 1 0.010000 1002.000000 -0.665593 0.687136 -0.348138
174 1 0.010000 1002.000000 -0.519908 0.667445 0.605487
175 1 0.010000 1002.000000 -0.229341 -0.602433 0.063146
176 1 0.010000 1002.000000 -0.358658 0.293528 0.917912
177 1 0.010000 1002.000000 0.155466 -0.852996 -0.783472
178 1 0.010000 1002.000000 0.974403 0.791855 0.641986
179 1 0.010000 1002.000000 -0.463110 0.394142 0.377321
180 1 0.010000 1002.000000 0.156149 -0.597557 0.625207
181 1 0.010000 1002.000000 -0.415739 0.260471 0.561219
182 1 0.010000 1002.000000 0.836680 -0.962117 -0.119257
183 1 0.010000 1002.000000 -0.771227 0.617102 0.509183
184 1 0.010000 1002.000000 -0.051274 -0.966588 0.820438
185 1 0.010000 1002.000000 0.598295 0.692238 -0.720141
186 1 0.010000 1002.000000 0.651660 -0.679548 0.644673
187 1 0.010000 1002.000000 -0.252193 0.425135 -0.377382
188 1 0.010000 1002.000000 -0.416797 -0.256252 -0.456785
189 1 0.010000 1002.000000 -0.250875 0.138812 0.651732
190 1 0.010000 1002.000000 0.973460 0.910363 -0.527382
191 1 0.010000 1002.000000 -0.133394 0.249236 -0.577948
192 1 0.010000 1002.000000 0.630868 -0.874478 0.597602
193 1 0.010000 1002.000000 -0.871481 -0.588398 -0.389650
194 1 0.010000 1002.000000 -0.144488 -0.856035 -0.247062
195 1 0.010000 1002.000000 -0.960109 -0.963394 -0.960469
196 1 0.010000 1002.000000 -0.236956 0.077833 0.189446
197 1 0.010000 1002.000000 -0.172050 0.802547 0.050299
198 1 0.010000 1002.000000 0.119635 0.649647 -0.962722
199 1 0.010000 1002.000000 0.766848 -0.126306 -0.228591
200 1 0.010000 1002.000000 -0.026891 -0.807036 -0.308616
201 1 0.010000 1002.000000 0.528120 -0.186374 -0.766256
202 1 0.010000 1002.000000 0.341671 -0.231601 0.044549
203 1 0.010000 1002.000000 0.617371 0.287882 0.771018
204 1 0.010000 1002.000000 0.984756 0.126580 0.945080
205 1 0.010000 1002.000000 0.659222 -0.611144 0.463050
206 1 0.010000 1002.000000 -0.585308 0.234562 0.060086
207 1 0.010000 1002.000000 0.750422 -0.353813 0.999536
208 1 0.010000 1002.000000 -0.734910 0.746625 -0.308157
209 1 0.010000 1002.000000 -0.225892 0.514101 -0.269453
210 1 0.010000 1002.000000 -0.728938 0.504118 -0.978011
211 1 0.010000 1002.000000 0.943036 0.081238 -0.984758
212 1 0.010000 1002.000000 -0.846215 0.078229 -0.583214
213 1 0.010000 1002.000000 0.545372 -0.843359 0.523718
214 1 0.010000 1002.000000 0.545106 -0.309454 0.585321
215 1 0.010000 1002.000000 -0.369843 0.387279 -0.316304
216 1 0.010000 1002.000000 -0.182261 -0.450621 -0.885756
217 1 0.010000 1002.000000 0.105163 -0.713230 -0.608025
218 1 0.010000 1002.000000 -0.130055 0.232196 0.167668
219 1 0.010000 1002.000000 -0.764152 0.095446 0.849174
220 1 0.010000 1002.000000 0.529406 -0.803252 -0.259740
221 1 0.010000 1002.000000 0.323665 0.378589 -0.505301
222 1 0.010000 1002.000000 0.718987 -0.377686 -0.732220
223 1 0.010000 1002.000000 0.868930 0.829706 0.767459
224 1 0.010000 1002.000000 -0.060337 0.559020 -0.035522
225 1 0.010000 1002.000000 0.647784 0.075612 -0.318406
226 1 0.010000 1002.000000 -0.821324 -0.195516 -0.353678
227 1 0.010000 1002.000000 -0.400736 0.610797 0.426524
228 1 0.010000 1002.000000 -0.841598 -0.662392 -0.219732
229 1 0.010000 1002.000000 -0.301672 0.485012 -0.337739
230 1 0.010000 1002.000000 0.618463 -0.428846 0.015499
231 1 0.010000 1002.000000 0.400485 -0.511861 -0.933631
232 1 0.010000 1002.000000 0.951012 -0.475036 0.564240
233 1 0.010000 1002.000000 0.851323 -0.267542 0.415933
234 1 0.010000 1002.000000 -0.812136 0.798183 0.555898
235 1 0.010000 1002.000000 -0.729614 0.697946 -0.491151
236 1 0.010000 1002.000000 -0.883751 0.023482 -0.386421
237 1 0.010000 1002.000000 0.226712 -0.786667 0.636035
238 1 0.010000 1002.000000 0.660505 0.195092 -0.725682
239 1 0.010000 1002.000000 0.188758 0.122109 0.395133
240 1 0.010000 1002.000000 -0.280812 -0.982868 0.879714
241 1 0.010000 1002.000000 0.944472 0.035814 -0.208098
242 1 0.010000 1002.000000 -0.473947 -0.469201 -0.247535
243 1 0.010000 1002.000000 0.945350 -0.063917 -0.888063
244 1 0.010000 1002.000000 0.101228 -0.561370 -0.743895
245 1 0.010000 1002.000000 -0.109336 0.794259 -0.796041
246 1 0.010000 1002.000000 0.796884 -0.601550 0.512739
247 1 0.010000 1002.000000 0.004735 0.320772 0.732032
248 1 0.010000 1002.000000 0.837831 -0.563799 0.993190
249 1 0.010000 1002.000000 0.865424 0.319984 -0.803044
250 1 0.010000 1002.000000 -0.770105 -0.449389 -0.654855
251 1 0.010000 1002.000000 0.475601 -0.140013 -0.030955
252 1 0.010000 1002.000000 0.323646 0.971905 0.874538
253 1 0.010000 1002.000000 0.531619 -0.803504 0.019192
254 1 0.010000 1002.000000 -0.738733 0.540330 -0.567416
255 1 0.010000 1002.000000 0.958930 0.940176 -0.897069
256 1 0.010000 1002.000000 0.343532 -0.766053 0.299909
257 1 0.010000 1002.000000 0.754050 0.385008 -0.194007
258 1 0.010000 1002.000000 -0.891765 0.257677 -0.558348
259 1 0.010000 1002.000000 -0.017260 -0.337561 -0.903989
260 1 0.010000 1002.000000 -0.024058 0.274201 -0.067091
261 1 0.010000 1002.000000 0.163608 0.257838 0.140873
262 1 0.010000 1002.000000 0.823254 -0.529150 0.459005
263 1 0.010000 1002.000000 0.507308 0.345298 0.940889
264 1 0.010000 1002.000000 0.771848 -0.445427 0.005424
265 1 0.010000 1002.000000 -0.650827 0.856142 -0.252676
266 1 0.010000 1002.000000 -0.852101 0.419081 0.510086
267 1 0.010000 1002.000000 -0.461432 -0.049612 -0.145386
268 1 0.010000 1002.000000 -0.574594 -0.177697 0.237863
269 1 0.010000 1002.000000 -0.342652 0.529430 0.668917
270 1 0.010000 1002.000000 0.321644 -0.394439 -0.797883
271 1 0.010000 1002.000000 -0.039675 0.889683 0.009883
272 1 0.010000 1002.000000 -0.576763 -0.017418 0.630347
273 1 0.010000 1002.000000 0.662261 0.359325 -0.239727
274 1 0.010000 1002.000000 -0.558183 -0.353640 -0.729257
275 1 0.010000 1002.000000 0.446587 -0.229908 0.453696
276 1 0.010000 1002.000000 0.323025 0.049622 -0.802710
277 1 0.010000 1002.000000 -0.548029 -0.694162 0.520985
278 1 0.010000 1002.000000 0.483676 0.035269 0.406983
279 1 0.010000 1002.000000 0.784443 -0.124074 0.755830
280 1 0.010000 1002.000000 0.443100 0.493462 0.692208
281 1 0.010000 1002.000000 -0.177936 0.919726 -0.344352
282 1 0.010000 1002.000000 0.431105 -0.116364 -0.797628
283 1 0.010000 1002.000000 0.883165 0.938804 0.385993
284 1 0.010000 1002.000000 0.870816 0.000286 -0.830244
285 1 0.010000 1002.000000 0.133288 -0.574605 0.020701
286 1 0.010000 1002.000000 -0.929316 0.018093 -0.125236
287 1 0.010000 1002.000000 -0.879559 -0.904145 -0.435088
288 1 0.010000 1002.000000 -0.623026 0.486792 0.396051
289 1 0.010000 1002.000000 -0.247714 -0.988437 0.139880
290 1 0.010000 1002.000000 0.137350 0.128194 0.006011
291 1 0.010000 1002.000000 0.338064 -0.503336 -0.897615
292 1 0.010000 1002.000000 0.809972 -0.120147 0.825651
293 1 0.010000 1002.000000 0.558860 0.625634 -0.444004
294 1 0.010000 1002.000000 0.772217 0.678072 0.382737
295 1 0.010000 1002.000000 0.308093 0.941181 -0.901133
296 1 0.010000 1002.000000 -0.747371 0.094121 -0.351518
297 1 0.010000 1002.000000 -0.996787 -0.460508 -0.958834
298 1 0.010000 1002.000000 -0.652113 -0.974320 -0.780905
299 1 0.010000 1002.000000 0.267725 0.001546 -0.570498
300 1 0.010000 1002.000000 0.636074 -0.506600 0.851899
301 1 0.010000 1002.000000 -0.101804 -0.130009 0.374269
302 1 0.010000 1002.000000 0.617852 -0.975945 -0.268106
303 1 0.010000 1002.000000 -0.942592 0.217024 0.986562
304 1 0.010000 1002.000000 -0.929942 -0.452430 -0.871369
305 1 0.010000 1002.000000 -0.233015 0.817350 0.025044
306 1 0.010000 1002.000000 -0.386517 0.715885 0.610145
307 1 0.010000 1002.000000 -0.360537 -0.142985 0.460431
308 1 0.010000 1002.000000 -0.538940 -0.563582 0.194909
309 1 0.010000 1002.000000 0.772148 0.077318 -0.774743
310 1 0.010000 1002.000000 -0.025425 0.369833 0.093192
311 1 0.010000 1002.000000 -0.917843 0.446103 0.776378
312 1 0.010000 1002.000000 0.423856 -0.256909 -0.489594
313 1 0.010000 1002.000000 0.287224 0.338475 -0.208852
314 1 0.010000 1002.000000 0.908135 -0.610314 -0.490806
315 1 0.010000 1002.000000 0.323614 -0.472847 -0.156545
316 1 0.010000 1002.000000 -0.436789 0.231233 0.340769
317 1 0.010000 1002.000000 0.557862 0.332901 0.846134
318 1 0.010000 1002.000000 -0.852143 0.084961 -0.642311
319 1 0.010000 1002.000000 -0.420673 -0.215930 0.796313
320 1 0.010000 1002.000000 -0.337356 0.829104 0.371337
321 1 0.010000 1002.000000 -0.592917 -0.453478 0.442339
322 1 0.010000 1002.000000 0.172424 -0.830409 -0.217477
323 1 0.010000 1002.000000 0.122032 -0.678024 0.648428
324 1 0.010000 1002.000000 -0.990364 -0.933960 0.246249
325 1 0.010000 1002.000000 0.381828 0.524790 0.663147
326 1 0.010000 1002.000000 -0.406175 0.316382 -0.830336
327 1 0.010000 1002.000000 -0.000909 -0.875667 -0.948219
328 1 0.010000 1002.000000 -0.193350 -0.765459 -0.978581
329 1 0.010000 1002.000000 0.252764 0.578977 0.611960
330 1 0.010000 1002.000000 0.305320 -0.153254 -0.805933
331 1 0.010000 1002.000000 -0.871174 -0.264613 -0.330232
332 1 0.010000 1002.000000 0.255285 0.542237 -0.177981
333 1 0.010000 1002.000000 -0.021326 0.600996 0.983381
334 1 0.010000 1002.000000 -0.976763 -0.193198 0.963419
335 1 0.010000 1002.000000 -0.988570 -0.231377 -0.562388
336 1 0.010000 1002.000000 -0.025881 -0.523594 -0.259920
337 1 0.010000 1002.000000 0.600580 -0.339730 -0.616199
338 1 0.010000 1002.000000 0.412720 0.022288 -0.642173
339 1 0.010000 1002.000000 -0.532017 0.868694 0.236081
340 1 0.010000 1002.000000 -0.189650 -0.298549 0.886604
341 1 0.010000 1002.000000 0.408352 0.913012 -0.681557
342 1 0.010000 1002.000000 -0.409659 -0.272257 0.693223
343 1 0.010000 1002.000000 0.764006 0.009541 0.481368
344 1 0.010000 1002.000000 -0.872924 -0.531832 -0.231216
345 1 0.010000 1002.000000 0.247369 0.511672 -0.478899
346 1 0.010000 1002.000000 0.193311 0.585886 0.568322
347 1 0.010000 1002.000000 0.580904 -0.844409 -0.351904
348 1 0.010000 1002.000000 0.199022 0.857532 -0.242317
349 1 0.010000 1002.000000 0.694676 0.591557 0.903452
350 1 0.010000 1002.000000 -0.682954 0.163293 -0.120519
351 1 0.010000 1002.000000 0.905113 -0.860771 -0.009582
352 1 0.010000 1002.000000 0.327873 0.293875 -0.882753
353 1 0.010000 1002.000000 0.754203 -0.646740 -0.381743
354 1 0.010000 1002.000000 -0.764861 -0.649117 -0.743962
355 1 0.010000 1002.000000 0.515053 -0.118248 -0.960576
356 1 0.010000 1002.000000 -0.013009 -0.586666 -0.730350
357 1 0.010000 1002.000000 -0.542177 0.639830 -0.399565
358 1 0.010000 1002.000000 0.019988 0.550015 -0.534570
359 1 0.010000 1002.000000 -0.709357 -0.076474 0.293192
360 1 0.010000 1002.000000 -0.831822 0.837681 -0.243148
361 1 0.010000 1002.000000 0.002569 0.523400 0.490666
362 1 0.010000 1002.000000 0.940185 0.093818 -0.651670
363 1 0.010000 1002.000000 -0.735545 -0.574370 0.617070
364 1 0.010000 1002.000000 0.936305 0.114794 -0.966229
365 1 0.010000 1002.000000 0.598323 -0.765328 0.189512
366 1 0.010000 1002.000000 0.957009 0.904513 -0.399801
367 1 0.010000 1002.000000 0.832503 0.524035 -0.679431
368 1 0.010000 1002.000000 0.058244 -0.143897 -0.963561
369 1 0.010000 1002.000000 0.943336 0.030608 0.648698
370 1 0.010000 1002.000000 -0.471401 -0.452420 0.435890
371 1 0.010000 1002.000000 0.016647 -0.992785 0.539624
372 1 0.010000 1002.000000 -0.027141 0.639396 0.953830
373 1 0.010000 1002.000000 -0.006564 0.602650 -0.382498
374 1 0.010000 1002.000000 -0.355150 0.445246 -0.450704
375 1 0.010000 1002.000000 0.389277 -0.933467 0.768197
376 1 0.010000 1002.000000 -0.446416 0.290180 -0.172395
377 1 0.010000 1002.000000 -0.071579 0.129630 -0.044812
378 1 0.010000 1002.000000 0.381134 -0.991146 0.458026
379 1 0.010000 1002.000000 -0.597681 0.983757 -0.698142
380 1 0.010000 1002.000000 0.077251 0.867316 -0.165012
381 1 0.010000 1002.000000 -0.230616 0.503210 -0.530941
382 1 0.010000 1002.000000 0.592052 0.424569 -0.657323
383 1 0.010000 1002.000000 -0.676259 0.029172 0.867590
384 1 0.010000 1002.000000 0.331926 -0.930282 0.150971
385 1 0.010000 1002.000000 -0.366117 0.514641 -0.382260
386 1 0.010000 1002.000000 -0.328332 -0.528875 -0.753225
387 1 0.010000 1002.000000 -0.007589 -0.032945 0.395974
388 1 0.010000 1002.000000 0.226727 -0.482860 0.919232
389 1 0.010000 1002.000000 -0.409228 -0.973625 -0.896400
390 1 0.010000 1002.000000 -0.905610 0.306093 0.421712
391 1 0.010000 1002.000000 0.601553 -0.204594 0.736140
392 1 0.010000 1002.000000 -0.600661 -0.156613 0.483963
393 1 0.010000 1002.000000 -0.124051 -0.590923 0.934818
394 1 0.010000 1002.000000 -0.232298 0.587102 0.882728
395 1 0.010000 1002.000000 0.079836 0.418823 -0.655516
396 1 0.010000 1002.000000 -0.210577 -0.848205 0.421849
397 1 0.010000 1002.000000 -0.137299 0.741531 0.176839
398 1 0.010000 1002.000000 -0.679664 -0.165703 -0.260045
399 1 0.010000 1002.000000 -0.559754 -0.933309 0.009369
400 1 0.010000 1002.000000 -0.945702 -0.222669 0.664599
401 1 0.010000 1002.000000 0.064968 0.813607 -0.559551
402 1 0.010000 1002.000000 0.432819 0.039093 0.913809
403 1 0.010000 1002.000000 -0.993711 0.214884 0.280494
404 1 0.010000 1002.000000 -0.247357 0.419887 0.152217
405 1 0.010000 1002.000000 -0.552392 -0.217478 -0.111965
406 1 0.010000 1002.000000 0.854979 -0.414517 0.199221
407 1 0.010000 1002.000000 -0.270842 0.977972 -0.384141
408 1 0.010000 1002.000000 0.765116 0.789976 0.740696
409 1 0.010000 1002.000000 -0.793230 -0.766803 -0.331051
410 1 0.010000 1002.000000 -0.953048 0.784576 -0.376479
411 1 0.010000 1002.000000 -0.945546 0.268011 0.517927
412 1 0.010000 1002.000000 -0.679894 0.895764 -0.481716
413 1 0.010000 1002.000000 0.287568 -0.135392 -0.738959
414 1 0.010000 1002.000000 0.572966 -0.135471 0.155989
415 1 0.010000 1002.000000 -0.282936 0.778109 -0.733426
416 1 0.010000 1002.000000 -0.095144 0.769062 0.062240
417 1 0.010000 1002.000000 -0.230023 -0.007719 0.083942
418 1 0.010000 1002.000000 0.794214 -0.371308 -0.467573
419 1 0.010000 1002.000000 0.883757 -0.319921 0.172403
420 1 0.010000 1002.000000 -0.557872 -0.011194 -0.530459
421 1 0.010000 1002.000000 0.560664 -0.702653 -0.437900
422 1 0.010000 1002.000000 -0.093661 -0.925309 0.132008
423 1 0.010000 1002.000000 0.043232 0.780088 -0.099287
424 1 0.010000 1002.000000 0.897866 -0.825641 0.689096
425 1 0.010000 1002.000000 -0.659693 -0.625536 -0.926158
426 1 0.010000 1002.000000 0.375440 0.334809 -0.608836
427 1 0.010000 1002.000000 -0.280057 -0.379304 -0.957337
428 1 0.010000 1002.000000 -0.843216 0.719461 0.125268
429 1 0.010000 1002.000000 -0.407399 0.453535 -0.892327
430 1 0.010000 1002.000000 0.505677 -0.889629 -0.327599
431 1 0.010000 1002.000000 0.569617 0.475042 -0.083038
432 1 0.010000 1002.000000 0.426469 0.388664 0.750403
433 1 0.010000 1002.000000 -0.802554 0.808715 0.379172
434 1 0.010000 1002.000000 -0.153884 0.840350 -0.536460
435 1 0.010000 1002.000000 0.828900 -0.366756 -0.022628
436 1 0.010000 1002.000000 -0.153042 -0.066981 0.313765
437 1 0.010000 1002.000000 -0.759418 -0.724837 -0.586775
438 1 0.010000 1002.000000 -0.453315 -0.811809 0.957337
439 1 0.010000 1002.000000 0.328415 0.078304 0.842698
440 1 0.010000 1002.000000 0.669897 -0.725948 -0.767841
441 1 0.010000 1002.000000 -0.266247 -0.324500 0.877619
442 1 0.010000 1002.000000 0.884285 -0.296822 -0.173303
443 1 0.010000 1002.000000 -0.687087 0.004126 -0.526064
444 1 0.010000 1002.000000 0.632307 0.349058 -0.947225
445 1 0.010000 1002.000000 0.399009 -0.963658 0.220182
446 1 0.010000 1002.000000 0.287898 0.479573 0.833956
447 1 0.010000 1002.000000 0.141911 0.443161 0.291894
448 1 0.010000 1002.000000 -0.997500 -0.505876 0.253521
449 1 0.010000 1002.000000 0.698066 0.893749 -0.559497
450 1 0.010000 1002.000000 0.506794 -0.767727 0.104624
451 1 0.010000 1002.000000 -0.783075 -0.730665 -0.060184
452 1 0.010000 1002.000000 0.781621 -0.700396 0.170297
453 1 0.010000 1002.000000 -0.285842 0.866361 0.054182
454 1 0.010000 1002.000000 -0.698818 -0.683352 0.490486
455 1 0.010000 1002.000000 0.580763 -0.764101 0.236902
456 1 0.010000 1002.000000 0.067199 -0.269179 0.149427
457 1 0.010000 1002.000000 -0.386195 0.663755 -0.349118
458 1 0.010000 1002.000000 -0.170963 0.910352 0.159434
459 1 0.010000 1002.000000 0.464560 0.668722 -0.905013
460 1 0.010000 1002.000000 -0.242180 -0.832161 -0.701093
461 1 0.010000 1002.000000 -0.336126 0.221141 0.093669
462 1 0.010000 1002.000000 -0.670296 -0.595677 0.730440
463 1 0.010000 1002.000000 -0.247424 0.176924 -0.663597
464 1 0.010000 1002.000000 0.178694 0.850004 -0.127364
465 1 0.010000 1002.000000 -0.312756 -0.192768 -0.588829
466 1 0.010000 1002.000000 -0.454888 0.876136 0.401445
467 1 0.010000 1002.000000 -0.498637 0.479620 -0.494862
468 1 0.010000 1002.000000 0.713402 -0.867866 -0.831367
469 1 0.010000 1002.000000 0.065452 -0.712576 -0.814141
470 1 0.010000 1002.000000 0.308820 0.732932 0.975557
471 1 0.010000 1002.000000 -0.472270 -0.355136 0.965097
472 1 0.010000 1002.000000 0.791090 0.525763 0.767944
473 1 0.010000 1002.000000 0.934750 0.761185 0.521541
474 1 0.010000 1002.000000 -0.124972 0.010484 -0.762976
475 1 0.010000 1002.000000 0.754604 -0.058470 0.816171
476 1 0.010000 1002.000000 0.711733 0.369754 -0.123966
477 1 0.010000 1002.000000 -0.669719 -0.410194 0.653261
478 1 0.010000 1002.000000 -0.963021 0.309855 -0.819961
479 1 0.010000 1002.000000 -0.197663 0.812789 -0.407632
480 1 0.010000 1002.000000 -0.314056 0.605764 -0.317947
481 1 0.010000 1002.000000 0.502482 0.436285 -0.484209
482 1 0.010000 1002.000000 -0.744087 0.387964 0.530945
483 1 0.010000 1002.000000 0.920663 0.199852 0.031697
484 1 0.010000 1002.000000 -0.593336 0.288868 -0.437839
485 1 0.010000 1002.000000 0.036246 -0.244010 -0.061393
486 1 0.010000 1002.000000 0.396885 0.230884 0.396290
487 1 0.010000 1002.000000 0.544703 -0.852529 -0.242534
488 1 0.010000 1002.000000 0.328299 -0.581443 0.363599
489 1 0.010000 1002.000000 -0.413893 -0.374046 -0.169718
490 1 0.010000 1002.000000 0.928285 0.757964 -0.986956
491 1 0.010000 1002.000000 -0.274120 -0.593860 0.891821
492 1 0.010000 1002.000000 -0.637649 -0.487899 0.661366
493 1 0.010000 1002.000000 0.185248 0.663581 0.739277
494 1 0.010000 1002.000000 -0.023655 -0.118141 0.724263
495 1 0.010000 1002.000000 -0.507574 0.898533 0.042507
496 1 0.010000 1002.000000 0.885473 0.180427 0.310534
497 1 0.010000 1002.000000 -0.028336 0.089692 -0.757259
498 1 0.010000 1002.000000 0.825656 0.342992 0.422313
499 1 0.010000 1002.000000 -0.735638 -0.320205 0.566703
500 1 0.010000 1002.000000 -0.382222 0.967522 -0.021495
501 1 0.010000 1002.000000 -0.167896 -0.186874 0.782898
502 1 0.010000 1002.000000 -0.189248 0.913209 -0.689449
503 1 0.010000 1002.000000 0.931918 0.588540 0.517558
504 1 0.010000 1002.000000 -0.628590 0.896844 -0.614476
505 1 0.010000 1002.000000 0.513193 -0.000190 0.383013
506 1 0.010000 1002.000000 0.894844 -0.778285 0.931511
507 1 0.010000 1002.000000 0.137394 0.121120 -0.857711
508 1 0.010000 1002.000000 -0.841602 0.280262 0.811759
509 1 0.010000 1002.000000 -0.876891 0.308179 -0.825695
510 1 0.010000 1002.000000 0.259751 0.597106 0.014605
511 1 0.010000 1002.000000 -0.599692 0.638914 -0.292020
512 1 0.010000 1002.000000 0.504059 -0.646459 -0.537247
513 1 0.010000 1002.000000 -0.343363 0.139881 0.542212
514 1 0.010000 1002.000000 -0.080579 -0.788561 0.123114
515 1 0.010000 1002.000000 -0.080769 0.618405 -0.418930
516 1 0.010000 1002.000000 -0.331268 -0.363162 -0.818892
517 1 0.010000 1002.000000 0.386470 0.502785 0.048545
518 1 0.010000 1002.000000 0.254302 0.860201 -0.313736
519 1 0.010000 1002.000000 -0.767140 0.963502 0.519459
520 1 0.010000 1002.000000 -0.885971 -0.886702 -0.841791
521 1 0.010000 1002.000000 -0.136756 0.687140 0.075773
522 1 0.010000 1002.000000 0.864397 0.360839 0.367496
523 1 0.010000 1002.000000 -0.786446 0.011600 0.520609
524 1 0.010000 1002.000000 -0.956885 -0.409237 -0.149308
525 1 0.010000 1002.000000 0.363238 -0.402270 -0.504684
526 1 0.010000 1002.000000 0.469067 0.854894 -0.616603
527 1 0.010000 1002.000000 -0.514807 0.946391 -0.362213
528 1 0.010000 1002.000000 0.763354 0.959350 -0.202902
529 1 0.010000 1002.000000 0.187424 0.299382 -0.331728
530 1 0.010000 1002.000000 0.176904 -0.691130 -0.489390
531 1 0.010000 1002.000000 -0.171478 -0.613777 0.175486
532 1 0.010000 1002.000000 -0.843291 0.876643 0.299445
533 1 0.010000 1002.000000 0.454829 -0.498390 -0.051805
534 1 0.010000 1002.000000 0.708318 -0.557428 -0.397881
535 1 0.010000 1002.000000 -0.312530 0.627461 0.245802
536 1 0.010000 1002.000000 0.747478 -0.117182 0.782009
537 1 0.010000 1002.000000 0.644349 0.526689 0.748664
538 1 0.010000 1002.000000 -0.615980 -0.699463 0.662526
539 1 0.010000 1002.000000 0.322207 -0.816189 0.572610
540 1 0.010000 1002.000000 -0.830015 -0.647096 0.061278